LIGGGHTS (Version LIGGGHTS-PUBLIC 3.8.0, compiled 2025-08-04-00:59:41 by b80985, git commit unknown)
