# vtk DataFile Version 5.1
Generated by LIGGGHTS
ASCII
DATASET POLYDATA
POINTS 1000 float
-0.00187143 -0.0166738 0.00229629 0.000911045 -0.0165885 0.00167175 0.00586163 -0.0160333 0.00151877 
-0.000628095 -0.0141954 0.00159237 0.00207176 -0.0132528 0.00150735 0.00492615 -0.0133368 0.00170065 
0.00772721 -0.0138816 0.00153921 0.0164839 -0.0126272 0.00185798 0.0219119 -0.0128996 0.00148295 
-0.00593552 -0.011931 0.00151869 0.00238404 -0.0104299 0.00165062 0.00524416 -0.0104786 0.00149407 
0.00811104 -0.0104185 0.00151711 0.0109615 -0.010352 0.00148002 0.0135651 -0.0115155 0.0015004 
0.0192251 -0.01192 0.00156632 0.0228669 -0.0103757 0.00242128 -0.00643146 -0.00757603 0.00147686 
-0.00458994 -0.00955412 0.00235545 -0.000419437 -0.00989266 0.00152195 0.00380823 -0.00798354 0.00159537 
0.00665225 -0.00798767 0.00164844 0.00949458 -0.00789727 0.00151345 0.0123073 -0.00790342 0.0020647 
0.0149037 -0.00900656 0.00150843 0.0202517 -0.00930041 0.00195932 0.0253367 -0.00906028 0.00186608 
0.0281374 -0.00945891 0.00151386 0.0321877 -0.00789384 0.00160604 -0.0363995 -0.00694584 0.00154627 
-0.0336043 -0.00658847 0.001993 -0.00363368 -0.00698991 0.00151406 -0.000827816 -0.00712461 0.00206722 
0.00798199 -0.00546697 0.00153675 0.0128987 -0.00516972 0.00148821 0.0155289 -0.00623737 0.00151157 
0.0180895 -0.00749353 0.0014859 0.0236681 -0.00675133 0.0018405 0.0270586 -0.00680627 0.0015353 
0.0312176 -0.00521345 0.00171834 -0.0352592 -0.00432031 0.00149884 -0.000935833 -0.00268516 0.00147216 
0.00626085 -0.00318203 0.00151151 0.0111028 -0.00298558 0.00181605 0.017476 -0.00416575 0.00149693 
0.0201674 -0.00376689 0.00229759 0.0229083 -0.00401769 0.00159128 0.0256909 -0.00435128 0.00207724 
0.0285018 -0.00433917 0.00156236 -0.0049692 -0.000416073 0.00206988 -0.00214628 -0.000272927 0.00240546 
0.00400625 -0.00142235 0.0015247 0.00664941 -0.000351486 0.0015058 0.0139662 -0.00015151 0.00199215 
0.0174926 -0.00132162 0.00147225 0.0225697 -0.00118295 0.00161769 0.034783 -0.00196149 0.00150507 
0.00333461 -0.0155043 0.00271165 0.00552838 -0.0173103 0.00404971 0.00213384 -0.013509 0.00435615 
0.00628399 -0.0145529 0.00391784 0.00905257 -0.0128668 0.00384732 0.0145035 -0.0133708 0.00376515 
0.000703869 -0.0110882 0.00385009 0.00393739 -0.0113584 0.00385584 0.00698437 -0.0110304 0.00454371 
0.0118324 -0.0123878 0.003581 0.0100492 -0.0102113 0.0041666 0.0173469 -0.0100069 0.0025996 
0.0181298 -0.0122553 0.00416963 0.0212283 -0.0120025 0.00409122 -0.0055146 -0.00755366 0.0041783 
-0.00271897 -0.00812974 0.00395755 0.00253477 -0.00887714 0.00403529 0.0134862 -0.0090931 0.00437396 
0.0159821 -0.00781052 0.0038619 0.0188105 -0.00810451 0.00416365 0.0214111 -0.00919473 0.0045647 
0.0242511 -0.00897277 0.00450298 0.0270768 -0.00903564 0.00413058 0.0306497 -0.0100039 0.00275881 
-0.0378134 -0.00474667 0.00268902 -0.0354736 -0.00574754 0.00397264 -0.00749236 -0.00568008 0.00329746 
-0.000401811 -0.00676679 0.0048829 -0.0024555 -0.00531475 0.00352279 0.00276848 -0.00608464 0.00344222 
0.00587065 -0.00688961 0.0041642 0.0135654 -0.00626624 0.00404367 0.0191702 -0.00527554 0.00450406 
0.0210759 -0.00680641 0.00302421 0.0243127 -0.00611683 0.0045507 0.0271639 -0.00618685 0.00431156 
0.0296115 -0.00734462 0.00271239 0.0319616 -0.00655836 0.00412147 -0.00594597 -0.00340072 0.00405529 
-0.00349582 -0.00277474 0.00272584 -0.00112189 -0.00253727 0.00429673 0.000304751 -0.00469129 0.00306748 
0.00170151 -0.00274219 0.00460736 0.00415191 -0.0035699 0.00339988 0.0085923 -0.00317705 0.00313464 
0.0131744 -0.00343437 0.00372259 0.0157985 -0.00451678 0.00378111 0.018012 -0.00272605 0.00389219 
0.0211869 -0.00330252 0.00492102 0.0239477 -0.0033205 0.00414438 0.026721 -0.00266262 0.0041247 
0.0296762 -0.00484795 0.00410252 0.0305259 -0.00258404 0.00255865 -0.00753422 -0.00156999 0.00255048 
0.00061969 -0.000753037 0.00288269 0.00627138 -0.00173441 0.00396631 0.0132115 -0.000214514 0.00475146 
0.0165408 -0.000255731 0.00391403 0.0199871 -0.000971824 0.0028127 0.0286445 -0.000661118 0.00348534 
0.0324136 -0.00118623 0.00419217 0.0040204 -0.0153458 0.00546673 0.00524399 -0.0128097 0.00592943 
0.00805948 -0.0142269 0.00614038 0.0108418 -0.0136108 0.00596046 -0.00299681 -0.0103652 0.00732859 
-0.000402662 -0.0122555 0.00620444 0.00230137 -0.0113353 0.00619596 0.0105311 -0.010936 0.00687164 
0.0132817 -0.0121281 0.00602354 0.0173772 -0.012368 0.00691084 0.0196481 -0.0108154 0.00613713 
0.0243453 -0.0104358 0.00695497 -0.00524481 -0.00761452 0.00702703 -0.000864957 -0.00949288 0.00563344 
-0.0023879 -0.00758827 0.00710865 0.00160922 -0.00863136 0.00674537 0.00496438 -0.00924911 0.00548587 
0.00890806 -0.00782524 0.00527598 0.0115122 -0.00832763 0.00629073 0.0149844 -0.00844178 0.00670695 
0.0170364 -0.00994758 0.00542916 0.0217437 -0.00933708 0.00739299 0.0244215 -0.00758005 0.00699317 
-0.00444612 -0.00530277 0.00556198 0.00157941 -0.0057843 0.0067023 0.00419741 -0.00518869 0.00573874 
0.00647111 -0.00645433 0.00690883 0.00923455 -0.00604523 0.00749758 0.0114513 -0.00550241 0.00580325 
0.0216742 -0.00601431 0.00567895 0.0271944 -0.00683019 0.0070938 -0.00842902 -0.00434372 0.00562105 
-0.00606853 -0.00337819 0.00691284 -0.00367954 -0.00256183 0.00556576 -0.00174823 -0.00458301 0.00617694 
0.00317433 -0.0028679 0.0070501 0.00682178 -0.00432991 0.00504516 0.00942406 -0.00347923 0.00585685 
0.0124858 -0.00291166 0.00642136 0.0145685 -0.00486113 0.00632346 0.0191363 -0.00368172 0.00688235 
0.0232103 -0.00392011 0.00683921 0.0259303 -0.00444612 0.0062067 0.02872 -0.00440934 0.00675688 
-0.0102306 -0.000443343 0.00682036 -0.00769548 -0.00160005 0.00539785 2.97443e-05 -0.00246538 0.00690478 
0.00654366 -0.000260828 0.00638448 0.0151091 -0.00221177 0.00542658 0.0176569 -0.00130755 0.00633927 
0.0225353 -0.00120038 0.00628855 0.0271165 -0.00210414 0.00730301 0.0300479 -0.00231111 0.00534996 
0.00352833 -0.0129555 0.00820361 0.00607393 -0.0140422 0.00887581 0.00883442 -0.0147649 0.0088422 
0.0110732 -0.0129905 0.00874798 0.00295719 -0.0102025 0.00872986 0.00543075 -0.011354 0.00960389 
0.00737151 -0.011863 0.00757779 0.0117629 -0.0102625 0.00935019 0.0166303 -0.0107889 0.00915991 
0.0210454 -0.0119503 0.00834247 -0.00449946 -0.00906052 0.00937581 4.48913e-05 -0.00902586 0.00910639 
0.00606461 -0.00882779 0.00844669 0.00954732 -0.00873294 0.00835004 0.0130034 -0.00778372 0.00865282 
0.0157513 -0.00788244 0.00939957 0.0192641 -0.00973109 0.00874432 -0.00730298 -0.00578718 0.00780895 
-0.00316236 -0.00654998 0.0096493 -0.000641596 -0.00581224 0.0084969 0.00384749 -0.00718137 0.00774627 
0.00642833 -0.00589836 0.00968698 0.0198765 -0.00719471 0.00756341 0.0223972 -0.00615925 0.00842936 
-0.00965985 -0.00495149 0.00918637 -0.00866833 -0.00262281 0.0078714 -0.00712039 -0.00386865 0.00991987 
-0.00381303 -0.00399082 0.0085497 -0.000586759 -0.00280651 0.00966479 0.00355066 -0.0035262 0.00981082 
0.00738892 -0.00391968 0.00782528 0.0101215 -0.00357392 0.00862581 0.0124804 -0.00262209 0.009963 
0.0125918 -0.00498284 0.00837484 0.0165389 -0.00329472 0.00805115 0.0187234 -0.00266025 0.0097753 
0.0255558 -0.00380808 0.00897871 -0.0104639 -0.00120165 0.00956435 -0.00516802 -0.00147137 0.00883072 
-0.00247052 -0.00155063 0.00793448 0.00104952 -0.000621712 0.00884095 0.00546903 -0.00191419 0.00845057 
0.0143062 -0.00150388 0.00807779 0.0168608 -0.000636296 0.00900898 0.0201087 -0.00114827 0.00779189 
0.0245817 -0.00122087 0.00827848 0.0298269 -0.00220109 0.00819723 0.0113463 -0.0190257 0.00999914 
-0.0160596 -0.0125063 0.0165855 0.00415248 -0.0135457 0.0109272 0.00816669 -0.0106076 0.0100081 
0.0143037 -0.0100085 0.0106316 0.000763058 -0.00936794 0.0118481 0.0023948 -0.00777625 0.0101279 
0.00775258 -0.0079991 0.0110895 0.0108203 -0.00796677 0.0107757 0.0131651 -0.00807622 0.0124037 
0.0177785 -0.00901401 0.0110651 0.0217069 -0.00988764 0.0101937 -0.000729453 -0.00707225 0.0110522 
0.00213993 -0.00576577 0.0121354 0.00918935 -0.00564954 0.0103337 0.0140156 -0.00599414 0.0106419 
0.0165923 -0.00652428 0.0117673 0.018997 -0.00657844 0.0102119 0.0230592 -0.00746938 0.0108796 
-0.00312832 -0.00423185 0.0113121 -0.00036737 -0.00440383 0.0120138 0.00487623 -0.00498261 0.0118774 
0.00730175 -0.00361589 0.0111505 0.0101148 -0.00320204 0.0114605 0.0173785 -0.00379749 0.0120198 
0.015312 -0.00251873 0.0105226 0.0207241 -0.00484261 0.011683 0.0233718 -0.00464128 0.0106271 
0.00155984 -0.00236002 0.011487 0.0049536 -0.00214167 0.0118795 0.00742201 -0.000775034 0.0115504 
0.0215283 -0.00248102 0.0102967 0.0122326 -0.00172206 0.0126666 -0.0294377 -0.00121136 0.001756 
-0.0268754 -0.00167828 0.00292009 -0.0151473 0.00987153 0.0152236 -0.00953569 0.000176396 0.00151976 
-0.00758203 0.00207731 0.00237099 -0.00358875 0.00201831 0.00149607 0.0163864 0.00130446 0.00153097 
0.0215034 0.00138461 0.00226072 0.0328048 9.68538e-05 0.00166674 0.035561 0.000786859 0.00159725 
-0.0275244 0.000906283 0.00189515 -0.0101527 0.00295638 0.00148769 -0.00565408 0.00399402 0.00148623 
0.0160375 0.00404808 0.00224993 0.0249201 0.00312165 0.00149611 0.0273408 0.00427104 0.00247547 
0.0336249 0.00275715 0.00233209 -0.0119826 0.00730186 0.00198814 -0.00637863 0.00677738 0.00154332 
0.00032001 0.0060425 0.00152453 0.0113318 0.00690685 0.00149758 0.0182416 0.00569621 0.00150497 
0.0281106 0.00700893 0.00224388 0.0308624 0.00625171 0.00230168 0.0345148 0.00541608 0.00177131 
-0.00375191 0.00993562 0.0022173 0.00114296 0.00877278 0.00152405 0.00888769 0.00848629 0.00149821 
0.0114062 0.00975483 0.00158845 0.0264232 0.0099536 0.00157627 0.0331441 0.00791934 0.0019181 
-0.0120687 0.0101588 0.00204151 -0.00989581 0.0119429 0.00149917 -0.00716184 0.0113997 0.00217015 
-0.00106406 0.0105861 0.00146743 0.00349462 0.0102324 0.00220492 0.00620119 0.0109789 0.001557 
0.0090472 0.0113587 0.0016106 0.0139306 0.0110286 0.0019145 0.0191829 0.0118476 0.00196976 
0.0240275 0.0114345 0.0019899 0.0292562 0.0103037 0.00146183 0.0310756 0.0124339 0.00186973 
-0.0115612 0.0141408 0.00227016 -0.00885266 0.0146053 0.0014969 0.00416899 0.0129606 0.00186241 
[...]
POINT_DATA 1000
FIELD FieldData 7
id 1 1000 int
10 41 49 24 266 25 280 297 3 
18 263 22 12 290 285 53 27 302 
36 282 268 251 277 295 37 48 21 
9 141 83 29 17 2 16 50 30 
46 15 39 247 23 43 104 38 33 
7 19 274 309 191 107 235 6 378 
138 164 248 254 1 252 52 262 504 
298 256 535 301 520 56 296 272 270 
58 306 258 13 45 294 264 260 32 
40 51 259 253 28 287 278 31 273 
4 281 305 34 65 304 205 54 47 
303 308 44 8 5 42 289 261 527 
292 279 291 11 35 434 67 14 554 
689 26 267 551 558 761 509 531 555 
544 543 501 533 549 524 525 508 548 
552 526 518 257 521 503 293 534 283 
528 532 286 284 767 507 506 276 255 
510 265 275 300 269 556 307 530 788 
804 529 536 158 299 288 547 807 511 
515 810 773 766 769 787 789 774 782 
751 768 765 776 755 516 797 546 502 
757 522 540 542 538 512 784 519 794 
523 505 764 545 539 557 517 513 790 
752 792 806 541 648 537 271 550 514 
809 801 216 57 775 805 802 781 796 
808 777 795 786 803 778 798 553 758 
791 800 763 759 753 762 783 793 780 
754 772 785 779 756 799 770 760 124 
79 144 193 339 102 55 186 136 160 
197 357 199 161 131 242 218 363 89 
429 112 331 384 425 234 237 69 63 
206 130 433 455 227 229 118 243 123 
116 211 238 157 149 169 223 175 204 
84 62 155 203 165 80 178 194 183 
472 154 249 179 222 90 127 310 120 
87 332 208 117 226 86 182 110 64 
430 105 159 407 404 75 231 399 174 
484 740 184 77 60 103 195 367 219 
98 236 360 151 121 177 143 239 156 
487 431 392 496 190 139 749 401 111 
114 233 91 864 20 416 397 323 113 
389 482 72 66 685 393 214 499 209 
68 344 413 202 330 328 380 724 96 
232 359 423 94 212 314 445 119 460 
419 313 101 85 122 73 213 189 333 
147 99 92 317 128 210 246 145 220 
241 180 352 448 142 185 78 88 198 
150 61 100 408 166 428 415 490 93 
311 163 240 462 492 570 346 427 471 
387 146 59 221 115 201 385 465 483 
394 391 82 126 245 196 109 106 412 
495 379 347 435 140 436 167 97 364 
376 366 315 464 491 188 341 451 437 
422 463 418 402 390 447 349 170 168 
162 225 176 439 224 153 334 76 388 
81 148 459 125 603 329 640 565 351 
370 320 95 134 192 207 200 679 709 
457 369 675 132 477 383 596 688 698 
449 486 468 382 129 655 642 632 678 
732 365 673 900 666 629 452 450 454 
338 362 730 680 563 335 398 727 912 
438 173 172 135 355 250 358 625 475 
626 707 498 152 70 466 470 396 456 
561 343 476 340 350 692 473 215 405 
181 342 622 598 494 74 480 137 244 
368 373 461 646 411 377 714 337 420 
348 230 371 386 674 409 406 414 481 
474 594 395 336 444 741 467 319 575 
318 400 722 620 322 728 590 560 171 
581 702 479 485 750 618 432 356 668 
500 615 592 616 71 564 623 442 879 
898 228 426 381 372 638 458 922 326 
353 735 325 571 567 613 577 945 663 
652 441 573 572 876 974 601 695 469 
927 981 992 967 862 703 417 440 747 
645 915 701 566 847 890 936 744 579 
670 569 593 738 930 589 979 316 656 
903 611 591 726 664 607 453 493 619 
718 653 410 658 609 446 870 606 354 
217 108 403 489 682 654 745 650 955 
715 562 361 421 497 488 617 599 610 
624 700 424 710 723 568 634 748 321 
614 327 312 578 828 660 733 739 585 
588 743 996 933 375 672 691 697 816 
586 600 587 621 595 665 597 576 643 
651 644 604 559 818 868 712 716 602 
628 639 662 720 988 734 608 999 708 
925 746 989 631 686 681 848 690 635 
811 696 641 729 693 699 860 853 906 
919 612 574 932 909 704 877 929 958 
771 959 896 649 717 961 886 921 984 
971 835 647 633 711 659 731 817 869 
840 837 942 964 882 814 627 684 843 
705 582 935 871 895 856 855 669 637 
924 812 917 953 657 859 683 584 374 
324 671 345 736 630 914 580 842 954 
823 867 719 742 908 815 824 897 902 
583 976 957 977 713 938 949 478 881 
963 836 721 948 968 826 905 844 694 
676 636 667 834 737 970 857 918 838 
725 845 993 852 889 893 880 944 822 
947 987 865 965 875 687 885 854 829 
819 661 940 952 980 986 827 830 858 
978 874 878 962 821 913 133 861 946 
850 939 928 907 841 997 825 916 941 
833 901 891 931 911 937 985 990 926 
975 849 998 910 813 863 943 888 873 
883 677 866 951 872 969 983 920 706 
605 950 851 846 934 894 1000 960 884 
982 995 956 966 904 973 923 994 831 
899 972 887 820 832 187 991 892 839 
443 
type 1 1000 int
1 1 1 1 1 1 1 1 1 
1 1 1 1 1 1 1 1 1 
1 1 1 1 1 1 1 1 1 
1 1 1 1 1 1 1 1 1 
1 1 1 1 1 1 1 1 1 
1 1 1 1 1 1 1 1 1 
1 1 1 1 1 1 1 1 1 
1 1 1 1 1 1 1 1 1 
1 1 1 1 1 1 1 1 1 
1 1 1 1 1 1 1 1 1 
1 1 1 1 1 1 1 1 1 
1 1 1 1 1 1 1 1 1 
1 1 1 1 1 1 1 1 1 
1 1 1 1 1 1 1 1 1 
1 1 1 1 1 1 1 1 1 
1 1 1 1 1 1 1 1 1 
1 1 1 1 1 1 1 1 1 
1 1 1 1 1 1 1 1 1 
1 1 1 1 1 1 1 1 1 
1 1 1 1 1 1 1 1 1 
1 1 1 1 1 1 1 1 1 
1 1 1 1 1 1 1 1 1 
1 1 1 1 1 1 1 1 1 
1 1 1 1 1 1 1 1 1 
1 1 1 1 1 1 1 1 1 
1 1 1 1 1 1 1 1 1 
1 1 1 1 1 1 1 1 1 
1 1 1 1 1 1 1 1 1 
1 1 1 1 1 1 1 1 1 
1 1 1 1 1 1 1 1 1 
1 1 1 1 1 1 1 1 1 
1 1 1 1 1 1 1 1 1 
1 1 1 1 1 1 1 1 1 
1 1 1 1 1 1 1 1 1 
1 1 1 1 1 1 1 1 1 
1 1 1 1 1 1 1 1 1 
1 1 1 1 1 1 1 1 1 
1 1 1 1 1 1 1 1 1 
1 1 1 1 1 1 1 1 1 
1 1 1 1 1 1 1 1 1 
1 1 1 1 1 1 1 1 1 
1 1 1 1 1 1 1 1 1 
1 1 1 1 1 1 1 1 1 
1 1 1 1 1 1 1 1 1 
1 1 1 1 1 1 1 1 1 
1 1 1 1 1 1 1 1 1 
1 1 1 1 1 1 1 1 1 
1 1 1 1 1 1 1 1 1 
1 1 1 1 1 1 1 1 1 
1 1 1 1 1 1 1 1 1 
1 1 1 1 1 1 1 1 1 
1 1 1 1 1 1 1 1 1 
1 1 1 1 1 1 1 1 1 
1 1 1 1 1 1 1 1 1 
1 1 1 1 1 1 1 1 1 
1 1 1 1 1 1 1 1 1 
1 1 1 1 1 1 1 1 1 
1 1 1 1 1 1 1 1 1 
1 1 1 1 1 1 1 1 1 
1 1 1 1 1 1 1 1 1 
1 1 1 1 1 1 1 1 1 
1 1 1 1 1 1 1 1 1 
1 1 1 1 1 1 1 1 1 
1 1 1 1 1 1 1 1 1 
1 1 1 1 1 1 1 1 1 
1 1 1 1 1 1 1 1 1 
1 1 1 1 1 1 1 1 1 
1 1 1 1 1 1 1 1 1 
1 1 1 1 1 1 1 1 1 
1 1 1 1 1 1 1 1 1 
1 1 1 1 1 1 1 1 1 
1 1 1 1 1 1 1 1 1 
1 1 1 1 1 1 1 1 1 
1 1 1 1 1 1 1 1 1 
1 1 1 1 1 1 1 1 1 
1 1 1 1 1 1 1 1 1 
1 1 1 1 1 1 1 1 1 
1 1 1 1 1 1 1 1 1 
1 1 1 1 1 1 1 1 1 
1 1 1 1 1 1 1 1 1 
1 1 1 1 1 1 1 1 1 
1 1 1 1 1 1 1 1 1 
1 1 1 1 1 1 1 1 1 
1 1 1 1 1 1 1 1 1 
1 1 1 1 1 1 1 1 1 
1 1 1 1 1 1 1 1 1 
1 1 1 1 1 1 1 1 1 
1 1 1 1 1 1 1 1 1 
1 1 1 1 1 1 1 1 1 
1 1 1 1 1 1 1 1 1 
1 1 1 1 1 1 1 1 1 
1 1 1 1 1 1 1 1 1 
1 1 1 1 1 1 1 1 1 
1 1 1 1 1 1 1 1 1 
1 1 1 1 1 1 1 1 1 
1 1 1 1 1 1 1 1 1 
1 1 1 1 1 1 1 1 1 
1 1 1 1 1 1 1 1 1 
1 1 1 1 1 1 1 1 1 
1 1 1 1 1 1 1 1 1 
1 1 1 1 1 1 1 1 1 
1 1 1 1 1 1 1 1 1 
1 1 1 1 1 1 1 1 1 
1 1 1 1 1 1 1 1 1 
1 1 1 1 1 1 1 1 1 
1 1 1 1 1 1 1 1 1 
1 1 1 1 1 1 1 1 1 
1 1 1 1 1 1 1 1 1 
1 1 1 1 1 1 1 1 1 
1 1 1 1 1 1 1 1 1 
1 1 1 1 1 1 1 1 1 
1 
i 3 1000 int
0 0 0 0 0 0 0 0 0 
0 0 0 0 0 0 0 0 0 
0 0 0 0 0 0 0 0 0 
0 0 0 0 0 0 0 0 0 
0 0 0 0 0 0 0 0 0 
0 0 0 0 0 0 0 0 0 
0 0 0 0 0 0 0 0 0 
0 0 0 0 0 0 0 0 0 
0 0 0 0 0 0 0 0 0 
0 0 0 0 0 0 0 0 0 
0 0 0 0 0 0 0 0 0 
0 0 0 0 0 0 0 0 0 
0 0 0 0 0 0 0 0 0 
0 0 0 0 0 0 0 0 0 
0 0 0 0 0 0 0 0 0 
0 0 0 0 0 0 0 0 0 
0 0 0 0 0 0 0 0 0 
0 0 0 0 0 0 0 0 0 
0 0 0 0 0 0 0 0 0 
0 0 0 0 0 0 0 0 0 
0 0 0 0 0 0 0 0 0 
0 0 0 0 0 0 0 0 0 
0 0 0 0 0 0 0 0 0 
0 0 0 0 0 0 0 0 0 
0 0 0 0 0 0 0 0 0 
0 0 0 0 0 0 0 0 0 
0 0 0 0 0 0 0 0 0 
0 0 0 0 0 0 0 0 0 
0 0 0 0 0 0 0 0 0 
0 0 0 0 0 0 0 0 0 
0 0 0 0 0 0 0 0 0 
0 0 0 0 0 0 0 0 0 
0 0 0 0 0 0 0 0 0 
0 0 0 0 0 0 0 0 0 
0 0 0 0 0 0 0 0 0 
0 0 0 0 0 0 0 0 0 
0 0 0 0 0 0 0 0 0 
0 0 0 0 0 0 0 0 0 
0 0 0 0 0 0 0 0 0 
0 0 0 0 0 0 0 0 0 
0 0 0 0 0 0 0 0 0 
0 0 0 0 0 0 0 0 0 
0 0 0 0 0 0 0 0 0 
0 0 0 0 0 0 0 0 0 
0 0 0 0 0 0 0 0 0 
0 0 0 0 0 0 0 0 0 
0 0 0 0 0 0 0 0 0 
0 0 0 0 0 0 0 0 0 
0 0 0 0 0 0 0 0 0 
0 0 0 0 0 0 0 0 0 
0 0 0 0 0 0 0 0 0 
0 0 0 0 0 0 0 0 0 
0 0 0 0 0 0 0 0 0 
0 0 0 0 0 0 0 0 0 
0 0 0 0 0 0 0 0 0 
0 0 0 0 0 0 0 0 0 
0 0 0 0 0 0 0 0 0 
0 0 0 0 0 0 0 0 0 
0 0 0 0 0 0 0 0 0 
0 0 0 0 0 0 0 0 0 
0 0 0 0 0 0 0 0 0 
0 0 0 0 0 0 0 0 0 
0 0 0 0 0 0 0 0 0 
0 0 0 0 0 0 0 0 0 
0 0 0 0 0 0 0 0 0 
0 0 0 0 0 0 0 0 0 
0 0 0 0 0 0 0 0 0 
0 0 0 0 0 0 0 0 0 
0 0 0 0 0 0 0 0 0 
0 0 0 0 0 0 0 0 0 
0 0 0 0 0 0 0 0 0 
0 0 0 0 0 0 0 0 0 
0 0 0 0 0 0 0 0 0 
0 0 0 0 0 0 0 0 0 
0 0 0 0 0 0 0 0 0 
0 0 0 0 0 0 0 0 0 
0 0 0 0 0 0 0 0 0 
0 0 0 0 0 0 0 0 0 
0 0 0 0 0 0 0 0 0 
0 0 0 0 0 0 0 0 0 
0 0 0 0 0 0 0 0 0 
0 0 0 0 0 0 0 0 0 
0 0 0 0 0 0 0 0 0 
0 0 0 0 0 0 0 0 0 
0 0 0 0 0 0 0 0 0 
0 0 0 0 0 0 0 0 0 
0 0 0 0 0 0 0 0 0 
0 0 0 0 0 0 0 0 0 
0 0 0 0 0 0 0 0 0 
0 0 0 0 0 0 0 0 0 
0 0 0 0 0 0 0 0 0 
0 0 0 0 0 0 0 0 0 
0 0 0 0 0 0 0 0 0 
0 0 0 0 0 0 0 0 0 
0 0 0 0 0 0 0 0 0 
0 0 0 0 0 0 0 0 0 
0 0 0 0 0 0 0 0 0 
0 0 0 0 0 0 0 0 0 
0 0 0 0 0 0 0 0 0 
0 0 0 0 0 0 0 0 0 
0 0 0 0 0 0 0 0 0 
0 0 0 0 0 0 0 0 0 
0 0 0 0 0 0 0 0 0 
0 0 0 0 0 0 0 0 0 
0 0 0 0 0 0 0 0 0 
0 0 0 0 0 0 0 0 0 
0 0 0 0 0 0 0 0 0 
0 0 0 0 0 0 0 0 0 
0 0 0 0 0 0 0 0 0 
0 0 0 0 0 0 0 0 0 
0 0 0 0 0 0 0 0 0 
0 0 0 0 0 0 0 0 0 
0 0 0 0 0 0 0 0 0 
0 0 0 0 0 0 0 0 0 
0 0 0 0 0 0 0 0 0 
0 0 0 0 0 0 0 0 0 
0 0 0 0 0 0 0 0 0 
0 0 0 0 0 0 0 0 0 
0 0 0 0 0 0 0 0 0 
0 0 0 0 0 0 0 0 0 
0 0 0 0 0 0 0 0 0 
0 0 0 0 0 0 0 0 0 
0 0 0 0 0 0 0 0 0 
0 0 0 0 0 0 0 0 0 
0 0 0 0 0 0 0 0 0 
0 0 0 0 0 0 0 0 0 
0 0 0 0 0 0 0 0 0 
0 0 0 0 0 0 0 0 0 
0 0 0 0 0 0 0 0 0 
0 0 0 0 0 0 0 0 0 
0 0 0 0 0 0 0 0 0 
0 0 0 0 0 0 0 0 0 
0 0 0 0 0 0 0 0 0 
0 0 0 0 0 0 0 0 0 
0 0 0 0 0 0 0 0 0 
0 0 0 0 0 0 0 0 0 
0 0 0 0 0 0 0 0 0 
0 0 0 0 0 0 0 0 0 
0 0 0 0 0 0 0 0 0 
0 0 0 0 0 0 0 0 0 
0 0 0 0 0 0 0 0 0 
0 0 0 0 0 0 0 0 0 
0 0 0 0 0 0 0 0 0 
0 0 0 0 0 0 0 0 0 
0 0 0 0 0 0 0 0 0 
0 0 0 0 0 0 0 0 0 
0 0 0 0 0 0 0 0 0 
0 0 0 0 0 0 0 0 0 
0 0 0 0 0 0 0 0 0 
0 0 0 0 0 0 0 0 0 
0 0 0 0 0 0 0 0 0 
0 0 0 0 0 0 0 0 0 
0 0 0 0 0 0 0 0 0 
0 0 0 0 0 0 0 0 0 
0 0 0 0 0 0 0 0 0 
0 0 0 0 0 0 0 0 0 
0 0 0 0 0 0 0 0 0 
0 0 0 0 0 0 0 0 0 
0 0 0 0 0 0 0 0 0 
0 0 0 0 0 0 0 0 0 
0 0 0 0 0 0 0 0 0 
0 0 0 0 0 0 0 0 0 
0 0 0 0 0 0 0 0 0 
0 0 0 0 0 0 0 0 0 
0 0 0 0 0 0 0 0 0 
0 0 0 0 0 0 0 0 0 
0 0 0 0 0 0 0 0 0 
0 0 0 0 0 0 0 0 0 
0 0 0 0 0 0 0 0 0 
0 0 0 0 0 0 0 0 0 
0 0 0 0 0 0 0 0 0 
0 0 0 0 0 0 0 0 0 
0 0 0 0 0 0 0 0 0 
0 0 0 0 0 0 0 0 0 
0 0 0 0 0 0 0 0 0 
0 0 0 0 0 0 0 0 0 
0 0 0 0 0 0 0 0 0 
0 0 0 0 0 0 0 0 0 
0 0 0 0 0 0 0 0 0 
0 0 0 0 0 0 0 0 0 
0 0 0 0 0 0 0 0 0 
0 0 0 0 0 0 0 0 0 
0 0 0 0 0 0 0 0 0 
0 0 0 0 0 0 0 0 0 
0 0 0 0 0 0 0 0 0 
0 0 0 0 0 0 0 0 0 
0 0 0 0 0 0 0 0 0 
0 0 0 0 0 0 0 0 0 
0 0 0 0 0 0 0 0 0 
0 0 0 0 0 0 0 0 0 
0 0 0 0 0 0 0 0 0 
0 0 0 0 0 0 0 0 0 
0 0 0 0 0 0 0 0 0 
0 0 0 0 0 0 0 0 0 
0 0 0 0 0 0 0 0 0 
0 0 0 0 0 0 0 0 0 
0 0 0 0 0 0 0 0 0 
0 0 0 0 0 0 0 0 0 
0 0 0 0 0 0 0 0 0 
0 0 0 0 0 0 0 0 0 
0 0 0 0 0 0 0 0 0 
0 0 0 0 0 0 0 0 0 
0 0 0 0 0 0 0 0 0 
0 0 0 0 0 0 0 0 0 
0 0 0 0 0 0 0 0 0 
0 0 0 0 0 0 0 0 0 
0 0 0 0 0 0 0 0 0 
0 0 0 0 0 0 0 0 0 
0 0 0 0 0 0 0 0 0 
0 0 0 0 0 0 0 0 0 
0 0 0 0 0 0 0 0 0 
0 0 0 0 0 0 0 0 0 
0 0 0 0 0 0 0 0 0 
0 0 0 0 0 0 0 0 0 
0 0 0 0 0 0 0 0 0 
0 0 0 0 0 0 0 0 0 
0 0 0 0 0 0 0 0 0 
0 0 0 0 0 0 0 0 0 
0 0 0 0 0 0 0 0 0 
0 0 0 0 0 0 0 0 0 
0 0 0 0 0 0 0 0 0 
0 0 0 0 0 0 0 0 0 
0 0 0 0 0 0 0 0 0 
0 0 0 0 0 0 0 0 0 
0 0 0 0 0 0 0 0 0 
0 0 0 0 0 0 0 0 0 
0 0 0 0 0 0 0 0 0 
0 0 0 0 0 0 0 0 0 
0 0 0 0 0 0 0 0 0 
0 0 0 0 0 0 0 0 0 
0 0 0 0 0 0 0 0 0 
0 0 0 0 0 0 0 0 0 
0 0 0 0 0 0 0 0 0 
0 0 0 0 0 0 0 0 0 
0 0 0 0 0 0 0 0 0 
0 0 0 0 0 0 0 0 0 
0 0 0 0 0 0 0 0 0 
0 0 0 0 0 0 0 0 0 
0 0 0 0 0 0 0 0 0 
0 0 0 0 0 0 0 0 0 
0 0 0 0 0 0 0 0 0 
0 0 0 0 0 0 0 0 0 
0 0 0 0 0 0 0 0 0 
0 0 0 0 0 0 0 0 0 
0 0 0 0 0 0 0 0 0 
0 0 0 0 0 0 0 0 0 
0 0 0 0 0 0 0 0 0 
0 0 0 0 0 0 0 0 0 
0 0 0 0 0 0 0 0 0 
0 0 0 0 0 0 0 0 0 
0 0 0 0 0 0 0 0 0 
0 0 0 0 0 0 0 0 0 
0 0 0 0 0 0 0 0 0 
0 0 0 0 0 0 0 0 0 
0 0 0 0 0 0 0 0 0 
0 0 0 0 0 0 0 0 0 
0 0 0 0 0 0 0 0 0 
0 0 0 0 0 0 0 0 0 
0 0 0 0 0 0 0 0 0 
0 0 0 0 0 0 0 0 0 
0 0 0 0 0 0 0 0 0 
0 0 0 0 0 0 0 0 0 
0 0 0 0 0 0 0 0 0 
0 0 0 0 0 0 0 0 0 
0 0 0 0 0 0 0 0 0 
0 0 0 0 0 0 0 0 0 
0 0 0 0 0 0 0 0 0 
0 0 0 0 0 0 0 0 0 
0 0 0 0 0 0 0 0 0 
0 0 0 0 0 0 0 0 0 
0 0 0 0 0 0 0 0 0 
0 0 0 0 0 0 0 0 0 
0 0 0 0 0 0 0 0 0 
0 0 0 0 0 0 0 0 0 
0 0 0 0 0 0 0 0 0 
0 0 0 0 0 0 0 0 0 
0 0 0 0 0 0 0 0 0 
0 0 0 0 0 0 0 0 0 
0 0 0 0 0 0 0 0 0 
0 0 0 0 0 0 0 0 0 
0 0 0 0 0 0 0 0 0 
0 0 0 0 0 0 0 0 0 
0 0 0 0 0 0 0 0 0 
0 0 0 0 0 0 0 0 0 
0 0 0 0 0 0 0 0 0 
0 0 0 0 0 0 0 0 0 
0 0 0 0 0 0 0 0 0 
0 0 0 0 0 0 0 0 0 
0 0 0 0 0 0 0 0 0 
0 0 0 0 0 0 0 0 0 
0 0 0 0 0 0 0 0 0 
0 0 0 0 0 0 0 0 0 
0 0 0 0 0 0 0 0 0 
0 0 0 0 0 0 0 0 0 
0 0 0 0 0 0 0 0 0 
0 0 0 0 0 0 0 0 0 
0 0 0 0 0 0 0 0 0 
0 0 0 0 0 0 0 0 0 
0 0 0 0 0 0 0 0 0 
0 0 0 0 0 0 0 0 0 
0 0 0 0 0 0 0 0 0 
0 0 0 0 0 0 0 0 0 
0 0 0 0 0 0 0 0 0 
0 0 0 0 0 0 0 0 0 
0 0 0 0 0 0 0 0 0 
0 0 0 0 0 0 0 0 0 
0 0 0 0 0 0 0 0 0 
0 0 0 0 0 0 0 0 0 
0 0 0 0 0 0 0 0 0 
0 0 0 0 0 0 0 0 0 
0 0 0 0 0 0 0 0 0 
0 0 0 0 0 0 0 0 0 
0 0 0 0 0 0 0 0 0 
0 0 0 0 0 0 0 0 0 
0 0 0 0 0 0 0 0 0 
0 0 0 0 0 0 0 0 0 
0 0 0 0 0 0 0 0 0 
0 0 0 0 0 0 0 0 0 
0 0 0 0 0 0 0 0 0 
0 0 0 0 0 0 0 0 0 
0 0 0 0 0 0 0 0 0 
0 0 0 0 0 0 0 0 0 
0 0 0 0 0 0 0 0 0 
0 0 0 0 0 0 0 0 0 
0 0 0 0 0 0 0 0 0 
0 0 0 0 0 0 0 0 0 
0 0 0 0 0 0 0 0 0 
0 0 0 0 0 0 0 0 0 
0 0 0 0 0 0 0 0 0 
0 0 0 0 0 0 0 0 0 
0 0 0 0 0 0 0 0 0 
0 0 0 0 0 0 0 0 0 
0 0 0 0 0 0 0 0 0 
0 0 0 
v 3 1000 double
0.0011648589518 0.020615079906 0.10227511597 -0.022240088135 0.013258577523 0.022013057062 -0.016945948696 -0.009243382672 -0.0188921776 
0.0024765939309 0.022068615953 0.042745271091 -0.0018789653058 0.0030916495883 -0.010504186715 0.0010960593697 -0.0055263689809 -0.013332213086 
-0.0019090656288 -0.0079603669187 -0.0021378353033 0.0040717302266 0.0046976961284 -0.00030736555533 -0.0096736758197 0.00063167449827 -0.0019232368212 
-0.028856283065 0.007172228034 0.016099886099 0.011752767007 0.0094138936909 -0.003501860931 0.015549685951 0.00081511313999 0.0059432445271 
0.013805051445 -0.00017429278943 0.0070468448757 0.0074166551461 -0.0006083066965 0.00034708976486 0.0073777579053 -0.00028987622796 0.0010904064445 
-0.001617190781 0.0048841039195 -0.00079273651986 -0.0026932928402 -0.0040603798953 0.0052988134095 -0.005518100782 -0.014442377751 -0.000216475094 
0.0011480091031 -0.010873809002 0.0077388219859 0.018736745618 0.0005574503012 -0.010774149009 0.019825231983 0.0010074147844 0.0033399770306 
0.015320564126 -0.0022251870933 0.011924293392 0.010943922354 -0.0010456092916 0.0052141305371 0.0052500579782 -0.0015106792147 -0.0054271676161 
0.0035898959076 0.0011207987127 -0.001653812663 -0.00043044737959 0.00098205013921 0.0038283448794 -0.0012781114448 -0.0021713754986 0.0081557796332 
-3.6009271479e-05 0.0041185290358 0.0024445468832 0.0047587992943 0.0028282948072 0.018071222062 0.1510423716 0.046154543269 -0.0020369349806 
0.1525696155 0.032247125109 -0.019027534857 -0.0019951730645 -0.011330325121 -0.0047258992109 -0.0008757600594 -0.0054376116543 -0.0057880955383 
0.0055031507614 -0.0054768539784 0.010983913447 0.0040231968742 -0.00022648824016 -0.0036673425844 0.0015282153795 -0.00010632975335 0.00024614554937 
0.00047935961889 0.00016892357409 0.0033756446486 -0.003650201961 -0.0032326445239 0.0062649059557 -0.0028984692861 0.0020713877282 0.0095693640425 
-0.0010237553765 0.00098763610446 0.013267446878 0.16471132206 0.03846146163 0.0089103175134 -0.0040373312433 -0.0033201585157 -0.0032375677064 
-0.00060286647459 -0.0070698939608 0.0068174856645 -0.0091891826992 -0.01630161005 -0.0061804934388 0.00038514407467 0.00029157446663 -0.00047385643704 
-0.0017864795965 -0.00078591172427 -0.000216151939 -0.0023778849303 -0.00045099714748 0.0038383788379 -0.0042088454596 -2.7855434188e-05 0.0093482821028 
-0.0027926804867 0.00027625414902 0.011015854623 -0.0074487937787 -0.0051652268967 -0.0065148321143 -0.008196789077 -0.0050466304886 -0.0021466823576 
0.001321133859 -0.0068121603328 0.0054709120817 -0.00062967935529 -0.0050420836169 0.0026951730944 0.0086669682053 -0.0098226535314 -0.0018549461638 
-2.8450893301e-05 0.00037163753004 0.00029197897094 -0.0034794726618 0.0018553631011 0.0078535872774 -0.011555298559 -0.0084536906221 0.0087373593536 
-0.0072950839931 0.00013041605731 -0.016726096509 -0.048869498878 -0.026343478291 -0.042569850647 0.0031836970768 0.0045285764819 -0.01250316299 
-0.0049110961563 -0.014036764044 -0.011091062024 0.0052036385384 -0.0038572420357 0.0068149396419 0.014323246557 0.012171669173 0.0064551893379 
0.011161260681 0.0044248251274 -0.0070506475246 0.0057491582193 -0.0012681058912 -0.0032556385575 0.0094843787365 -0.0036784287449 -0.001031416897 
0.012608072281 0.0026503408294 0.0034536176018 0.0072939464211 0.00088413161425 0.0027521389236 0.0015168240816 0.0011415786633 0.0021062035632 
-0.0027116352816 0.00064009967524 0.0022219717607 -0.011793938711 -0.0030800358723 -0.00049212893873 -0.0011495187454 -0.0043053442043 -0.0026710501501 
-0.00078848672166 -0.00476864461 0.0012264371718 0.0088613251048 0.0035217587321 -0.0012772880592 -0.00093287334198 0.0017564642969 0.0010845381319 
-0.0010919328397 0.00026139197291 0.0013553959194 -0.0023555715819 -0.00072413947402 0.0037940285861 -0.0027917948038 -0.0037136639551 0.0058930806522 
-0.0038371008717 -0.0034408794635 0.0079243819609 9.9308434631e-05 -0.0011019076218 0.0076142521036 -0.0041525148474 0.0028160125559 0.012706856911 
0.1656328975 0.0542895765 0.0011546966971 0.16344410931 0.034695035482 0.0040105680451 -0.0042567878843 -0.0085063790009 -0.0018427982344 
4.1520815811e-05 -0.0018703570393 -0.00037725401726 -0.0011454042105 -0.0053349222191 -0.0044524881987 0.0038882184692 0.0026336676501 0.0001395758981 
0.0015906393292 0.0053551954642 -0.0030735498269 -0.0015729406662 0.00014383374656 -0.0025875082519 -0.0047812096058 -0.0012438377726 0.00027141282255 
-0.0030563414033 -0.0013439559601 0.0050207031768 -0.0045618140797 -0.00041074796987 0.0060754960941 -0.0025432333277 -0.0010079086894 0.0086563638677 
-0.00034613777968 0.0012243990465 0.009265660321 -0.00024443210687 0.0042242366244 0.014098775339 -0.0043369776188 -0.004663908734 -0.0053108855022 
-0.004073084192 -0.0066310228166 -0.0049807830461 -0.003955646517 -0.0043604386396 -0.0041324106136 -0.0011542943554 -0.0033397733357 -0.0061877300014 
-0.0021999292495 0.00057414099672 -0.00447246328 -0.0020355441909 0.001116685723 0.004227020853 -0.0022202394629 -0.012239203272 0.0060771442797 
0.00072918942218 0.0012898268861 -0.0033027054477 -0.0010894666401 -0.00028720064042 -0.00022950959212 -0.0012874036121 -0.0012301534141 -0.00016983760582 
-0.0053147889623 -0.0026023185203 0.00013049690077 -0.0070883690922 -0.002777616872 0.0068029181378 -0.0064005030263 0.00074023671973 0.0056995468024 
-0.0033130804277 -0.00024266789262 0.011344825653 -0.0043031225958 -0.0014854941229 0.0098743930752 -0.0067870600285 -0.0056625852072 -0.0055608541927 
-0.0076043970512 -0.0023906651939 -0.0057446042895 0.00066454433437 -0.0029103718911 0.0042222080774 -0.0012878441297 -0.005081568307 -0.0043182855016 
-0.00089696266951 -0.00065865846269 3.5389180694e-05 -0.0014231067814 -0.0015729951973 0.0073546845488 -0.004175099971 -0.001024638344 0.0055579794496 
-0.0056442545852 -0.0044897470256 0.015152592397 -0.013763028131 -0.011066062741 -0.015213745785 0.0033846878102 -0.0057106613206 -0.0039594359076 
0.0049421281597 -0.010540934527 0.0025649868108 0.013955083304 -0.005259630739 0.0030936243204 0.0065061479947 -0.008314402372 -0.0014344988556 
0.022293623638 0.0081175411055 0.015127244025 0.010919965727 0.0036147170348 -0.0092734617157 0.007338540302 -0.00073565971213 0.001720742512 
0.013860244929 -0.0021845094006 0.011451060198 -0.0092928330651 -0.0038640965726 -0.0011453196812 -0.0077332592699 -0.0031190209249 0.0036854713553 
0.0060969982741 0.0076668590085 0.017398616807 -0.00292863704 -0.0046990976331 -0.0070834382012 0.0085476549561 -0.00082497314725 0.0032898935105 
0.00099026226027 -0.0046937068515 -0.0013651934907 0.0040673719822 0.0024635684623 -0.00081939078481 0.011604517051 0.00042968305129 -0.006091184467 
0.0012952338437 -0.0033725192978 0.0049635236327 0.00088906900997 0.0030959648576 0.00072621327402 -0.0018087373017 0.0072144677657 -0.0036236503239 
-0.0049684218206 0.00027115728856 0.0012356309452 -0.0084751415055 -0.0055008041467 0.0093329137357 -0.0094148861179 0.0014519385558 0.0059682924634 
-0.0021492351914 -0.0052186264897 -0.0042998735215 -0.0026620346327 0.00082246908155 0.0071324597913 -0.0047360221135 0.0026571677718 0.0055520037093 
-0.0029100396764 -0.0035790649547 -0.0037346112391 -0.0036688302024 -0.0039719637141 0.0012362664655 -0.0058569883982 -0.0013797875141 0.0013507768985 
-0.0082143260246 -0.00077792482667 0.0046127963836 -0.0056824384987 -0.0034205709213 0.0077287324108 -0.0043913740401 -0.0059892476508 -0.0029107232904 