# vtk DataFile Version 5.1
Generated by LIGGGHTS
ASCII
DATASET POLYDATA
POINTS 500 float
0.0136075 -0.0131988 0.036601 0.0031541 -0.010225 0.036365 -0.00444061 -0.00849451 0.036067 
0.00613848 -0.00768589 0.0363499 0.0189126 -0.00926293 0.0361276 -0.0013582 -0.00669164 0.0365851 
0.00945297 -0.00566082 0.0366596 0.0257257 -0.00673546 0.0356567 -0.00308905 -0.00380005 0.0359093 
0.0116788 -0.00306992 0.0367673 0.0173189 -0.00472824 0.0358039 -0.00663779 -0.00190889 0.0357287 
0.00743962 -0.00219621 0.036395 0.0218176 -0.00223372 0.0361013 0.00907973 -0.012607 0.0372031 
0.0146819 -0.0110611 0.0384837 0.0177222 -0.0116127 0.0382374 0.0205991 -0.0108807 0.0394285 
0.00833056 -0.00999546 0.0385091 0.0132038 -0.0084453 0.0375261 0.0223219 -0.00913161 0.0375844 
-0.00614196 -0.00689141 0.0382995 0.0195975 -0.00579634 0.0382322 -0.00208666 -0.00463601 0.039382 
0.00070096 -0.00418992 0.0376238 0.00393469 -0.0043987 0.0383513 0.01089 -0.00491448 0.0392485 
0.0158318 -0.00304299 0.0386216 0.0242298 -0.00424082 0.0373218 -0.009827 -0.00219253 0.037686 
0.00592537 -0.00219775 0.0392307 0.0283209 -0.00187659 0.0377066 0.0114418 -0.0125728 0.0400899 
0.00224067 -0.0108057 0.0403632 0.00539417 -0.0105415 0.0401363 0.0149613 -0.0119988 0.0415157 
-0.000963028 -0.00918224 0.0403719 0.00895241 -0.00957662 0.0415144 0.0164703 -0.00858327 0.0417165 
0.0239434 -0.00846644 0.0406537 0.00158104 -0.00674479 0.04123 0.011193 -0.00744003 0.041306 
0.0149386 -0.00644234 0.0400848 0.0236584 -0.00525976 0.0404565 -0.00456744 -0.00298205 0.0414439 
0.0103342 -0.00253398 0.0419743 0.0132701 -0.00445464 0.0416654 0.0207465 -0.00256093 0.0399204 
0.0256047 -0.00198517 0.0411601 0.00827048 -0.0128912 0.0426979 -0.00372367 -0.00863405 0.0427155 
0.0194273 -0.00907137 0.0427652 0.00751332 -0.00557911 0.0423521 -0.00154496 -0.00334521 0.0424314 
0.00350341 -0.00396545 0.042841 0.0171913 -0.00339789 0.0421885 -0.00831872 -0.00234028 0.042352 
0.00112688 -0.00164233 0.0426139 0.00475761 -0.0101331 0.0497273 0.0125665 -0.0118252 0.0499555 
0.0204447 -0.00931293 0.0492567 -0.00567764 -0.00574567 0.0492482 0.0262047 -0.00694784 0.0492823 
0.0126515 -0.00323688 0.0494011 0.0243015 -0.00308154 0.0499477 0.00401553 -0.00180714 0.0491847 
0.00811285 -0.0126997 0.0512197 0.00246058 -0.011993 0.0505708 0.0174812 -0.0114592 0.0516731 
0.000241667 -0.00999196 0.051042 0.00738483 -0.00847299 0.0505131 0.0113803 -0.00766339 0.0519035 
0.0146435 -0.00952342 0.0508861 0.0236103 -0.00806766 0.0521615 -0.000168241 -0.00678797 0.0507014 
0.00455007 -0.00659164 0.0505069 0.0145403 -0.00500828 0.0515298 0.0190529 -0.00685491 0.0506395 
0.00164698 -0.00428262 0.0523188 0.00733822 -0.00345531 0.0520442 -0.00767912 -0.00239877 0.0501202 
-0.00267515 -0.00186049 0.0514028 0.0152281 -0.00168563 0.0506729 0.0188427 -0.00160886 0.0509132 
0.0278359 -0.00193898 0.0519716 0.0108557 -0.0130225 0.0545842 -0.00135593 -0.0102451 0.0546843 
0.0031002 -0.0119703 0.0541769 0.0136911 -0.0118027 0.052878 0.000932189 -0.00830935 0.0542527 
0.00531399 -0.00983203 0.053039 0.016268 -0.00845748 0.0544479 -0.00446412 -0.00705109 0.0525453 
0.00634106 -0.00624058 0.0541438 0.0261811 -0.0060131 0.0528862 -0.00802451 -0.00390219 0.0549717 
-0.00152737 -0.00463245 0.0525585 0.0039497 -0.00372013 0.0548898 0.0128955 -0.00290099 0.0530175 
0.0212074 -0.00358288 0.0526916 -0.00508487 -0.00192815 0.0533802 0.0236412 -0.00198971 0.0536758 
0.00616146 -0.0118096 0.0554495 0.017761 -0.0106484 0.0559804 0.0214977 -0.010071 0.0550658 
0.0039457 -0.00887507 0.0555735 0.00883956 -0.00858141 0.0559008 0.0118324 -0.00816733 0.0555552 
0.0198474 -0.00616639 0.0553992 -0.00397578 -0.00477323 0.0553334 0.00839743 -0.00282044 0.0556183 
0.0113691 -0.0042154 0.0555458 0.0209844 -0.00301942 0.0561531 0.0275825 -0.00486151 0.0562138 
0.000871003 -0.00181731 0.0553978 0.0160105 -0.0017709 0.055347 0.027952 -0.00174946 0.05565 
-0.00462621 0.0016248 0.0365289 0.0060063 0.00203512 0.0368778 0.0178199 0.00247639 0.0358379 
-0.00928771 0.00451097 0.0358763 -0.00601226 0.00486932 0.0367015 -0.000440246 0.00404452 0.0360148 
0.032064 0.00309082 0.0363461 0.00644694 0.00605001 0.0363923 0.013914 0.00541902 0.0363721 
0.0186323 0.00578564 0.0368613 0.0239873 0.0065705 0.0357407 0.0278546 0.00547307 0.0358657 
-0.00475942 0.00940273 0.0361374 0.002791 0.00928186 0.0357009 0.026528 0.00828879 0.0370071 
0.00245509 0.0123432 0.0364755 0.00872615 0.0107417 0.0358339 0.0181002 0.0108481 0.0366217 
0.0228393 0.010498 0.035806 0.0304404 0.0117205 0.0361791 -0.0112831 0.0141194 0.035675 
-0.00413442 0.0125097 0.035889 -0.00120105 0.0132637 0.0366508 0.0151702 0.0138133 0.0358382 
0.0268289 0.0132824 0.0362683 -0.0120147 0.0170851 0.0366551 -0.0067282 0.016887 0.0358102 
0.0129035 0.0163645 0.0367407 0.0174879 0.01635 0.0369975 0.0268293 0.0173995 0.0364017 
0.00438335 0.0182199 0.0361313 0.00863461 0.0188759 0.0362974 0.0230423 0.0183926 0.0356846 
0.0306997 0.0175015 0.0363391 -0.00601677 0.0217518 0.0365094 0.0196451 0.0216624 0.0369941 
0.0250001 0.0215893 0.0361171 0.0291263 0.021302 0.0362348 -5.18696e-05 0.0232594 0.035908 
0.00274765 0.0243798 0.0360936 0.011012 0.0238926 0.0363631 0.0166108 0.0230118 0.0366866 
0.000549495 0.0282511 0.0359275 0.00599068 0.0282761 0.0361272 0.00352171 0.0310126 0.0368436 
0.0148683 0.0323413 0.0369945 -0.00113359 0.00197923 0.0385556 0.013283 0.00165006 0.0378314 
0.0311863 0.00174196 0.0392171 -0.010097 0.00316434 0.0394472 -0.00462309 0.0032976 0.0394034 
0.00889509 0.00329137 0.0394794 0.0208128 0.003891 0.0388641 0.0235973 0.00386773 0.0370842 
0.0275689 0.00389094 0.0385839 0.0319303 0.00492599 0.0389178 -0.0132591 0.00681884 0.0383582 
-0.0024303 0.00630655 0.0383233 0.00131221 0.00654205 0.0392139 0.00913933 0.00675024 0.0389556 
-0.00765109 0.00918223 0.0373115 -0.000475454 0.00983608 0.0371141 0.0059979 0.00814347 0.0392234 
0.0126647 0.0078517 0.0381237 0.0156576 0.0082621 0.0389094 0.0322905 0.00800779 0.0376482 
-0.0108937 0.0100196 0.0383544 -0.00367945 0.0101822 0.0394679 0.00575418 0.0108983 0.03772 
0.0102285 0.0106236 0.0387092 -0.0119614 0.0136265 0.0387046 0.0126116 0.0125851 0.037896 
0.0153874 0.0148865 0.0391675 0.0217895 0.0147509 0.0378503 0.00175929 0.0163709 0.0371336 
0.0235866 0.017148 0.0388587 0.0289889 0.0151195 0.0378912 0.00159293 0.0191699 0.0382895 
0.0133113 0.0193738 0.0373455 0.0203112 0.017756 0.0387063 0.0276684 0.0195699 0.0387558 
-0.00306576 0.020186 0.037321 0.00695686 0.0202072 0.0393448 0.0168129 0.0202362 0.038713 
-0.00891125 0.0235847 0.0379869 0.0051068 0.0244823 0.0383606 0.0189909 0.0242951 0.03932 
0.0257559 0.023818 0.0382789 -0.00399942 0.0256795 0.0372 0.00367014 0.0272729 0.0387865 
0.00907842 0.0251676 0.0391068 0.0145524 0.0264105 0.0376166 0.0235368 0.0269292 0.0381794 
-0.00210121 0.0280225 0.0381064 0.0223322 0.0297052 0.0386799 0.000142147 0.03084 0.0377718 
0.00764794 0.030742 0.0372065 0.0117712 0.0301153 0.037807 0.0188992 0.0301464 0.0373534 
0.00563407 0.032783 0.0384338 0.0121284 0.0333828 0.0386471 -0.0072233 0.00205248 0.040352 
-0.00279661 0.00161336 0.041731 0.0223745 0.00172767 0.040602 0.00254352 0.00277921 0.0400799 
0.00508423 0.00397485 0.0416132 0.0189416 0.00416222 0.0413405 -0.0110994 0.00530144 0.04192 
-0.00348641 0.00622599 0.0415684 0.000955089 0.00502239 0.0419029 0.00888045 0.0060574 0.0420341 
0.0126556 0.00512 0.0405981 0.0160738 0.00502827 0.0400877 0.0204353 0.00726694 0.040185 
0.023556 0.00739212 0.0413365 0.0280006 0.00736909 0.0406994 -0.00735968 0.00765031 0.0411238 
0.00322532 0.0090935 0.0413648 0.0259004 0.00919564 0.0418432 0.000185027 0.0103282 0.0403368 
0.00899092 0.0107283 0.0415227 0.0125192 0.0102409 0.0412948 0.0179574 0.0101241 0.0403164 
0.0244518 0.0120754 0.0406064 0.0320944 0.0111736 0.0397104 -0.00820712 0.012544 0.0404493 
-0.00462224 0.0133122 0.0396252 -0.00126057 0.013054 0.0396517 0.0202572 0.0125564 0.0402988 
0.0234257 0.0148454 0.0420319 0.0317288 0.0149596 0.040566 -0.00868567 0.0174481 0.0398621 
-0.00563041 0.0172606 0.0397521 -0.0017541 0.016632 0.0411761 0.00635557 0.0161548 0.039769 
0.00916087 0.0151741 0.0405806 0.0176129 0.0173482 0.0402136 0.0259278 0.0166736 0.0409512 
-0.0113541 0.0189892 0.040674 -0.00899477 0.020978 0.0405639 -0.00438068 0.0202617 0.0412461 
-6.09119e-05 0.0218779 0.0419848 0.00341079 0.0210529 0.0401193 0.0099646 0.0210009 0.0405623 
0.01288 0.0201639 0.0416347 0.0160275 0.0202347 0.0416253 0.0193773 0.0207697 0.0405258 
0.0237595 0.0221964 0.0416343 0.0294477 0.0224754 0.0411627 -0.00773014 0.0242227 0.0416217 
-0.00412156 0.02381 0.0397116 0.0121574 0.0240893 0.0409856 0.0153823 0.0244643 0.041878 
-0.0060461 0.0267733 0.0396984 0.00186722 0.0261863 0.0410862 0.0115389 0.0273564 0.0395854 
-5.14024e-05 0.0287562 0.0417666 0.00790359 0.0283935 0.0398768 0.0147609 0.0286143 0.0401532 
0.0184291 0.029962 0.041787 0.00261129 0.0300513 0.0408171 0.00893315 0.0311781 0.0415523 
0.0136366 0.031603 0.0420105 0.0248585 0.00160936 0.0425507 0.0294727 0.00218002 0.0428675 
-0.00697619 0.0042729 0.0428714 0.0321236 0.00478712 0.0421576 -0.0110485 0.00940813 0.0422477 
-0.000651143 0.0078693 0.0428084 0.0306128 0.00994967 0.0427323 0.0332663 0.00810658 0.0421758 
-0.00694885 0.0109743 0.0429102 0.00291913 0.0118052 0.0428332 0.00648906 0.0116615 0.0429376 
0.0157619 0.0103141 0.0426375 -0.011298 0.0131338 0.0429517 0.0041272 0.0146122 0.0421371 
0.0144562 0.014681 0.0424879 0.0273614 0.0126381 0.0424096 -0.0116071 0.0165553 0.0427372 
-0.00655579 0.015337 0.0425638 0.00108391 0.0156472 0.0424599 0.0112969 0.0159701 0.0429337 
0.0209507 0.0167676 0.0425685 0.00111692 0.0190001 0.0428869 0.0255026 0.0195186 0.0426871 
0.00681114 0.0209263 0.0426612 -0.00392232 0.0228506 0.0429507 0.00686502 0.0247601 0.0426403 
0.0265711 0.0243041 0.0429008 -0.00295516 0.0262823 0.0421929 0.0124581 0.0271383 0.0424432 
-0.00428111 0.00168299 0.0492883 -0.00115739 0.00186428 0.0498532 0.00874924 0.00243681 0.0491005 
-0.00855288 0.00470883 0.0493617 0.0310584 0.00289087 0.0495153 -0.000109816 0.00652059 0.0494283 
0.0190637 0.00639992 0.0499887 0.0228658 0.00694539 0.0493496 0.0265784 0.00558548 0.049033 
0.031868 0.00710164 0.0496432 -0.00301308 0.00989633 0.0497461 0.0056915 0.00843448 0.0499337 
-0.0132914 0.0114122 0.0490182 0.0162915 0.0112082 0.0491405 0.0320497 0.0102336 0.0492778 
-0.00757638 0.0131157 0.0491627 -0.00450027 0.0132761 0.0493531 0.00471028 0.0145234 0.0490265 
0.0153338 0.014134 0.0491307 -0.00868579 0.0160645 0.0491252 -0.00339029 0.0170579 0.049545 
0.00940789 0.0163852 0.0490735 0.0231253 0.0154711 0.0495985 0.0317438 0.0158584 0.0497613 
0.00518965 0.0192507 0.0496154 0.0151439 0.0195486 0.0499656 0.0181605 0.0198088 0.0494253 
0.0261392 0.0185239 0.0495726 -0.0057696 0.0247338 0.0490379 0.0107562 0.0243299 0.0497356 
0.0139067 0.0247984 0.0494241 0.00305119 0.0255001 0.0490556 0.0191665 0.0254168 0.0491027 
0.0268955 0.0260292 0.0498023 -0.000140676 0.0284615 0.0496999 0.0129788 0.0283637 0.0499327 
0.0201843 0.0294006 0.049024 0.00550601 0.0312061 0.049427 0.00603907 0.00249754 0.0507974 
0.0119621 0.00184781 0.0507732 0.0252424 0.00248516 0.0513429 -0.00958226 0.00417424 0.0523355 
-0.00583383 0.00405327 0.051423 0.014372 0.00380946 0.0506121 -0.0112599 0.00667739 0.0524851 
-0.00699977 0.00691443 0.0507161 -0.00198112 0.00587773 0.0525062 0.00845511 0.0069644 0.0506385 
0.0215626 0.00588803 0.0519452 -0.00909388 0.00990068 0.050692 0.00179141 0.00925083 0.0500487 
0.0161395 0.00846608 0.0517657 0.0261562 0.00904512 0.0522994 0.0072982 0.0110501 0.0503319 
0.00952942 0.0111609 0.0523907 0.012558 0.011719 0.0521009 0.019674 0.010736 0.0516921 
0.0225269 0.010642 0.0507249 0.0261356 0.0112667 0.050191 0.0289678 0.0112087 0.0518532 
-0.0117086 0.0129934 0.0517627 -0.00867117 0.0130018 0.0521797 -0.00550273 0.0144616 0.0522145 
-0.00126357 0.0127141 0.0507809 0.00181562 0.0140781 0.0505062 0.0205935 0.0134804 0.050236 
0.0290691 0.0139447 0.0501434 -0.000680211 0.0158856 0.0501106 0.0189546 0.0169789 0.050209 
0.0252168 0.0167356 0.0519462 -0.0103843 0.017733 0.0516252 0.0102441 0.0192615 0.0513769 
-0.00700457 0.0204463 0.0508307 -0.00164371 0.0204047 0.0508029 0.00277127 0.0221977 0.0507263 
0.0221589 0.0206816 0.0505337 0.0266065 0.021142 0.0513592 0.0300575 0.021671 0.0517094 
0.00669531 0.0231412 0.0514792 0.0206984 0.0235284 0.0510757 0.0237746 0.024103 0.050083 
-0.00268448 0.0258336 0.050341 0.0166468 0.0259107 0.0506723 -0.00202379 0.0288556 0.0523587 
0.00640716 0.0281223 0.0507737 0.0242955 0.0275162 0.0503173 0.00281675 0.0322562 0.0520577 
0.00892714 0.030415 0.0505835 0.0138686 0.0309899 0.0512173 0.0103048 0.0329975 0.0518366 
-0.0110937 0.00235257 0.0547747 -0.00141319 0.00248349 0.0533829 0.00297479 0.00157546 0.0530395 
0.00974288 0.00251888 0.053366 0.015077 0.00311671 0.0541357 0.0183883 0.00450993 0.0544097 
0.0240614 0.00399337 0.0538733 0.0309693 0.00387892 0.0543046 0.00256454 0.00504477 0.0526657 
0.00539981 0.00677328 0.0529606 0.0129918 0.00558209 0.0528764 0.0284973 0.00685269 0.0543403 
-0.00780295 0.00752324 0.054327 -0.000416113 0.00796892 0.0544782 0.0103175 0.00757096 0.0534528 
0.0313177 0.0082393 0.0527842 -0.00660379 0.0106175 0.0527882 -0.00195985 0.011005 0.0535412 
0.00540909 0.0109611 0.0531116 0.0154466 0.0117795 0.0530293 0.0239402 0.012442 0.0539687 
-0.012851 0.0129648 0.0547829 0.00745019 0.014216 0.052743 0.0199896 0.0145767 0.0548468 
-0.00194754 0.0158612 0.0529712 0.00424633 0.0161051 0.0546061 0.0108982 0.015203 0.0526129 
0.0149799 0.0151908 0.0541088 0.028165 0.0173045 0.0537484 0.032425 0.0158341 0.0532666 
-0.00601703 0.018702 0.0545856 0.000983062 0.0191243 0.0527889 0.0062278 0.0179789 0.052546 
0.0138646 0.0189102 0.0546912 0.0169346 0.0177794 0.0546268 0.0226556 0.0195078 0.0540045 
-0.00848314 0.0201491 0.0535451 0.000548985 0.0222566 0.0536821 0.0043895 0.0205029 0.052815 
0.00874778 0.0202638 0.0542654 0.0117972 0.020805 0.053485 -0.00844415 0.0238977 0.0542575 
-0.00507065 0.0227712 0.054984 0.00285772 0.024291 0.053052 0.0073349 0.0228628 0.0547847 
0.0099292 0.0245975 0.0548909 0.0172178 0.0238474 0.0527842 0.0204933 0.0246974 0.0547458 
0.0232243 0.0248782 0.0529717 0.0261427 0.0248619 0.0547138 -0.000771651 0.0251073 0.0526857 
0.00138536 0.0270671 0.0538052 0.0059637 0.0258238 0.0537104 0.0141567 0.0250991 0.0536017 
0.00518758 0.0298535 0.0543056 0.0161116 0.029941 0.0544272 0.0236887 0.0285788 0.0533115 
0.0201368 0.0311673 0.0529303 0.00864767 0.0325316 0.0544385 0.0174093 0.00204258 0.0562161 
-0.00833279 0.00402087 0.056001 -0.00474808 0.00286702 0.0551701 0.000279705 0.00420399 0.055311 
0.00766642 0.00319404 0.0555466 0.0116113 0.00402081 0.0556925 0.0271196 0.00297535 0.0553623 
-0.00492618 0.00744431 0.0553019 0.0196171 0.00729444 0.0556713 0.0234221 0.0065801 0.055398 
-0.010867 0.00922699 0.0557579 0.00790776 0.00752349 0.0555304 0.0122246 0.00967273 0.0562149 
0.0156308 0.00812939 0.0550711 0.0234967 0.00992875 0.0556114 0.00416554 0.0106827 0.0561622 
0.0187457 0.0103474 0.0561514 0.0271054 0.0109243 0.0561298 -0.00607408 0.0125651 0.0551469 
-0.000516874 0.0125277 0.0560112 0.0144055 0.0130067 0.0560886 0.0283046 0.0140207 0.0551297 
0.0313479 0.0138085 0.0562439 -0.0113929 0.0167031 0.0562042 -0.00719831 0.0161512 0.0558085 
-0.00256043 0.0152475 0.0563066 0.00134867 0.0154703 0.0560657 0.00890819 0.0174111 0.0558182 
0.0242589 0.0171194 0.0553285 -0.00144458 0.0181233 0.056088 0.00376167 0.0191916 0.0556631 
0.0263327 0.0196517 0.0551889 0.0302567 0.0203139 0.0550219 -0.000420718 0.023796 0.0561906 
0.0132699 0.023065 0.0560509 0.0172089 0.0243146 0.0562709 -0.00467473 0.0257576 0.0559968 
-0.00184834 0.0279191 0.0552235 0.0118633 0.029306 0.0553551 0.0193929 0.0293978 0.0559193 
0.00179034 0.0316821 0.055406 0.0142078 0.0321299 0.055638 
VERTICES 501 500
OFFSETS vtktypeint64
0 1 2 3 4 5 6 7 8 
9 10 11 12 13 14 15 16 17 
18 19 20 21 22 23 24 25 26 
27 28 29 30 31 32 33 34 35 
36 37 38 39 40 41 42 43 44 
45 46 47 48 49 50 51 52 53 
54 55 56 57 58 59 60 61 62 
63 64 65 66 67 68 69 70 71 
72 73 74 75 76 77 78 79 80 
81 82 83 84 85 86 87 88 89 
90 91 92 93 94 95 96 97 98 
99 100 101 102 103 104 105 106 107 
108 109 110 111 112 113 114 115 116 
117 118 119 120 121 122 123 124 125 
126 127 128 129 130 131 132 133 134 
135 136 137 138 139 140 141 142 143 
144 145 146 147 148 149 150 151 152 
153 154 155 156 157 158 159 160 161 
162 163 164 165 166 167 168 169 170 
171 172 173 174 175 176 177 178 179 
180 181 182 183 184 185 186 187 188 
189 190 191 192 193 194 195 196 197 
198 199 200 201 202 203 204 205 206 
207 208 209 210 211 212 213 214 215 
216 217 218 219 220 221 222 223 224 
225 226 227 228 229 230 231 232 233 
234 235 236 237 238 239 240 241 242 
243 244 245 246 247 248 249 250 251 
252 253 254 255 256 257 258 259 260 
261 262 263 264 265 266 267 268 269 
270 271 272 273 274 275 276 277 278 
279 280 281 282 283 284 285 286 287 
288 289 290 291 292 293 294 295 296 
297 298 299 300 301 302 303 304 305 
306 307 308 309 310 311 312 313 314 
315 316 317 318 319 320 321 322 323 
324 325 326 327 328 329 330 331 332 
333 334 335 336 337 338 339 340 341 
342 343 344 345 346 347 348 349 350 
351 352 353 354 355 356 357 358 359 
360 361 362 363 364 365 366 367 368 
369 370 371 372 373 374 375 376 377 
378 379 380 381 382 383 384 385 386 
387 388 389 390 391 392 393 394 395 
396 397 398 399 400 401 402 403 404 
405 406 407 408 409 410 411 412 413 
414 415 416 417 418 419 420 421 422 
423 424 425 426 427 428 429 430 431 
432 433 434 435 436 437 438 439 440 
441 442 443 444 445 446 447 448 449 
450 451 452 453 454 455 456 457 458 
459 460 461 462 463 464 465 466 467 
468 469 470 471 472 473 474 475 476 
477 478 479 480 481 482 483 484 485 
486 487 488 489 490 491 492 493 494 
495 496 497 498 499 500 
CONNECTIVITY vtktypeint64
0 1 2 3 4 5 6 7 8 
9 10 11 12 13 14 15 16 17 
18 19 20 21 22 23 24 25 26 
27 28 29 30 31 32 33 34 35 
36 37 38 39 40 41 42 43 44 
45 46 47 48 49 50 51 52 53 
54 55 56 57 58 59 60 61 62 
63 64 65 66 67 68 69 70 71 
72 73 74 75 76 77 78 79 80 
81 82 83 84 85 86 87 88 89 
90 91 92 93 94 95 96 97 98 
99 100 101 102 103 104 105 106 107 
108 109 110 111 112 113 114 115 116 
117 118 119 120 121 122 123 124 125 
126 127 128 129 130 131 132 133 134 
135 136 137 138 139 140 141 142 143 
144 145 146 147 148 149 150 151 152 
153 154 155 156 157 158 159 160 161 
162 163 164 165 166 167 168 169 170 
171 172 173 174 175 176 177 178 179 
180 181 182 183 184 185 186 187 188 
189 190 191 192 193 194 195 196 197 
198 199 200 201 202 203 204 205 206 
207 208 209 210 211 212 213 214 215 
216 217 218 219 220 221 222 223 224 
225 226 227 228 229 230 231 232 233 
234 235 236 237 238 239 240 241 242 
243 244 245 246 247 248 249 250 251 
252 253 254 255 256 257 258 259 260 
261 262 263 264 265 266 267 268 269 
270 271 272 273 274 275 276 277 278 
279 280 281 282 283 284 285 286 287 
288 289 290 291 292 293 294 295 296 
297 298 299 300 301 302 303 304 305 
306 307 308 309 310 311 312 313 314 
315 316 317 318 319 320 321 322 323 
324 325 326 327 328 329 330 331 332 
333 334 335 336 337 338 339 340 341 
342 343 344 345 346 347 348 349 350 
351 352 353 354 355 356 357 358 359 
360 361 362 363 364 365 366 367 368 
369 370 371 372 373 374 375 376 377 
378 379 380 381 382 383 384 385 386 
387 388 389 390 391 392 393 394 395 
396 397 398 399 400 401 402 403 404 
405 406 407 408 409 410 411 412 413 
414 415 416 417 418 419 420 421 422 
423 424 425 426 427 428 429 430 431 
432 433 434 435 436 437 438 439 440 
441 442 443 444 445 446 447 448 449 
450 451 452 453 454 455 456 457 458 
459 460 461 462 463 464 465 466 467 
468 469 470 471 472 473 474 475 476 
477 478 479 480 481 482 483 484 485 
486 487 488 489 490 491 492 493 494 
495 496 497 498 499 
POINT_DATA 500
FIELD FieldData 7
id 1 500 int
18 49 41 26 45 58 25 9 29 
38 7 51 44 19 10 56 3 27 
22 13 48 40 4 47 2 16 50 
55 21 23 6 34 12 20 1 37 
24 5 46 32 17 31 30 15 11 
8 33 42 39 52 36 53 35 54 
28 14 57 43 263 290 294 302 260 
300 274 308 280 254 297 266 251 295 
285 264 253 268 269 273 287 265 291 
276 299 289 309 262 282 252 301 298 
256 257 270 278 305 259 255 283 271 
281 304 261 267 296 272 306 277 258 
284 293 275 286 307 292 303 288 279 
191 104 138 101 89 73 160 209 212 
202 242 234 85 61 149 100 243 112 
157 169 244 210 152 250 80 137 163 
211 238 90 64 180 97 226 127 95 
196 168 106 184 188 159 98 148 156 
207 205 132 141 83 102 68 72 66 
65 136 144 122 118 113 128 237 220 
63 161 230 215 108 145 206 216 189 
62 222 120 208 146 110 126 179 121 
182 231 249 197 77 192 133 143 236 
151 140 170 177 171 187 139 91 134 
239 233 232 107 186 235 69 119 214 
172 246 158 129 67 131 185 92 96 
94 130 70 123 213 99 165 74 88 
150 217 147 203 59 223 194 227 87 
116 154 109 124 79 221 115 75 84 
71 82 167 114 219 228 86 174 105 
190 225 153 81 224 111 76 176 200 
125 164 247 199 218 193 173 93 248 
229 135 204 142 198 183 166 78 178 
175 181 241 155 201 245 60 240 103 
117 162 195 416 397 469 499 380 423 
331 398 384 433 354 493 455 352 317 
405 497 492 428 409 462 472 471 467 
385 394 322 444 366 430 447 418 484 
437 353 325 334 459 369 434 383 357 
449 378 363 452 359 338 413 313 453 
333 475 466 470 396 448 343 476 350 
473 361 327 488 342 415 490 368 427 
387 386 332 412 310 379 436 364 376 
399 451 367 463 349 326 360 500 370 
320 392 487 339 486 323 440 482 344 
365 328 429 382 314 460 438 454 362 
425 498 374 403 456 340 311 408 337 
312 373 346 411 348 371 406 481 465 
391 377 395 319 318 400 347 435 404 
495 485 464 390 341 442 458 388 315 
381 402 432 439 329 351 401 443 477 
393 457 468 417 389 330 450 335 316 
419 355 489 445 410 345 358 446 421 
324 424 494 321 480 375 478 461 483 
420 414 474 336 407 479 491 356 422 
426 372 496 441 431 
type 1 500 int
1 1 1 1 1 1 1 1 1 
1 1 1 1 1 1 1 1 1 
1 1 1 1 1 1 1 1 1 
1 1 1 1 1 1 1 1 1 
1 1 1 1 1 1 1 1 1 
1 1 1 1 1 1 1 1 1 
1 1 1 1 1 1 1 1 1 
1 1 1 1 1 1 1 1 1 
1 1 1 1 1 1 1 1 1 
1 1 1 1 1 1 1 1 1 
1 1 1 1 1 1 1 1 1 
1 1 1 1 1 1 1 1 1 
1 1 1 1 1 1 1 1 1 
1 1 1 1 1 1 1 1 1 
1 1 1 1 1 1 1 1 1 
1 1 1 1 1 1 1 1 1 
1 1 1 1 1 1 1 1 1 
1 1 1 1 1 1 1 1 1 
1 1 1 1 1 1 1 1 1 
1 1 1 1 1 1 1 1 1 
1 1 1 1 1 1 1 1 1 
1 1 1 1 1 1 1 1 1 
1 1 1 1 1 1 1 1 1 
1 1 1 1 1 1 1 1 1 
1 1 1 1 1 1 1 1 1 
1 1 1 1 1 1 1 1 1 
1 1 1 1 1 1 1 1 1 
1 1 1 1 1 1 1 1 1 
1 1 1 1 1 1 1 1 1 
1 1 1 1 1 1 1 1 1 
1 1 1 1 1 1 1 1 1 
1 1 1 1 1 1 1 1 1 
1 1 1 1 1 1 1 1 1 
1 1 1 1 1 1 1 1 1 
1 1 1 1 1 1 1 1 1 
1 1 1 1 1 1 1 1 1 
1 1 1 1 1 1 1 1 1 
1 1 1 1 1 1 1 1 1 
1 1 1 1 1 1 1 1 1 
1 1 1 1 1 1 1 1 1 
1 1 1 1 1 1 1 1 1 
1 1 1 1 1 1 1 1 1 
1 1 1 1 1 1 1 1 1 
1 1 1 1 1 1 1 1 1 
1 1 1 1 1 1 1 1 1 
1 1 1 1 1 1 1 1 1 
1 1 1 1 1 1 1 1 1 
1 1 1 1 1 1 1 1 1 
1 1 1 1 1 1 1 1 1 
1 1 1 1 1 1 1 1 1 
1 1 1 1 1 1 1 1 1 
1 1 1 1 1 1 1 1 1 
1 1 1 1 1 1 1 1 1 
1 1 1 1 1 1 1 1 1 
1 1 1 1 1 1 1 1 1 
1 1 1 1 1 
i 3 500 int
0 0 0 0 0 0 0 0 0 
0 0 0 0 0 0 0 0 0 
0 0 0 0 0 0 0 0 0 
0 0 0 0 0 0 0 0 0 
0 0 0 0 0 0 0 0 0 
0 0 0 0 0 0 0 0 0 
0 0 0 0 0 0 0 0 0 
0 0 0 0 0 0 0 0 0 
0 0 0 0 0 0 0 0 0 
0 0 0 0 0 0 0 0 0 
0 0 0 0 0 0 0 0 0 
0 0 0 0 0 0 0 0 0 
0 0 0 0 0 0 0 0 0 
0 0 0 0 0 0 0 0 0 
0 0 0 0 0 0 0 0 0 
0 0 0 0 0 0 0 0 0 
0 0 0 0 0 0 0 0 0 
0 0 0 0 0 0 0 0 0 
0 0 0 0 0 0 0 0 0 
0 0 0 0 0 0 0 0 0 
0 0 0 0 0 0 0 0 0 
0 0 0 0 0 0 0 0 0 
0 0 0 0 0 0 0 0 0 
0 0 0 0 0 0 0 0 0 
0 0 0 0 0 0 0 0 0 
0 0 0 0 0 0 0 0 0 
0 0 0 0 0 0 0 0 0 
0 0 0 0 0 0 0 0 0 
0 0 0 0 0 0 0 0 0 
0 0 0 0 0 0 0 0 0 
0 0 0 0 0 0 0 0 0 
0 0 0 0 0 0 0 0 0 
0 0 0 0 0 0 0 0 0 
0 0 0 0 0 0 0 0 0 
0 0 0 0 0 0 0 0 0 
0 0 0 0 0 0 0 0 0 
0 0 0 0 0 0 0 0 0 
0 0 0 0 0 0 0 0 0 
0 0 0 0 0 0 0 0 0 
0 0 0 0 0 0 0 0 0 
0 0 0 0 0 0 0 0 0 
0 0 0 0 0 0 0 0 0 
0 0 0 0 0 0 0 0 0 
0 0 0 0 0 0 0 0 0 
0 0 0 0 0 0 0 0 0 
0 0 0 0 0 0 0 0 0 
0 0 0 0 0 0 0 0 0 
0 0 0 0 0 0 0 0 0 
0 0 0 0 0 0 0 0 0 
0 0 0 0 0 0 0 0 0 
0 0 0 0 0 0 0 0 0 
0 0 0 0 0 0 0 0 0 
0 0 0 0 0 0 0 0 0 
0 0 0 0 0 0 0 0 0 
0 0 0 0 0 0 0 0 0 
0 0 0 0 0 0 0 0 0 
0 0 0 0 0 0 0 0 0 
0 0 0 0 0 0 0 0 0 
0 0 0 0 0 0 0 0 0 
0 0 0 0 0 0 0 0 0 
0 0 0 0 0 0 0 0 0 
0 0 0 0 0 0 0 0 0 
0 0 0 0 0 0 0 0 0 
0 0 0 0 0 0 0 0 0 
0 0 0 0 0 0 0 0 0 
0 0 0 0 0 0 0 0 0 
0 0 0 0 0 0 0 0 0 
0 0 0 0 0 0 0 0 0 
0 0 0 0 0 0 0 0 0 
0 0 0 0 0 0 0 0 0 
0 0 0 0 0 0 0 0 0 
0 0 0 0 0 0 0 0 0 
0 0 0 0 0 0 0 0 0 
0 0 0 0 0 0 0 0 0 
0 0 0 0 0 0 0 0 0 
0 0 0 0 0 0 0 0 0 
0 0 0 0 0 0 0 0 0 
0 0 0 0 0 0 0 0 0 
0 0 0 0 0 0 0 0 0 
0 0 0 0 0 0 0 0 0 
0 0 0 0 0 0 0 0 0 
0 0 0 0 0 0 0 0 0 
0 0 0 0 0 0 0 0 0 
0 0 0 0 0 0 0 0 0 
0 0 0 0 0 0 0 0 0 
0 0 0 0 0 0 0 0 0 
0 0 0 0 0 0 0 0 0 
0 0 0 0 0 0 0 0 0 
0 0 0 0 0 0 0 0 0 
0 0 0 0 0 0 0 0 0 
0 0 0 0 0 0 0 0 0 
0 0 0 0 0 0 0 0 0 
0 0 0 0 0 0 0 0 0 
0 0 0 0 0 0 0 0 0 
0 0 0 0 0 0 0 0 0 
0 0 0 0 0 0 0 0 0 
0 0 0 0 0 0 0 0 0 
0 0 0 0 0 0 0 0 0 
0 0 0 0 0 0 0 0 0 
0 0 0 0 0 0 0 0 0 
0 0 0 0 0 0 0 0 0 
0 0 0 0 0 0 0 0 0 
0 0 0 0 0 0 0 0 0 
0 0 0 0 0 0 0 0 0 
0 0 0 0 0 0 0 0 0 
0 0 0 0 0 0 0 0 0 
0 0 0 0 0 0 0 0 0 
0 0 0 0 0 0 0 0 0 
0 0 0 0 0 0 0 0 0 
0 0 0 0 0 0 0 0 0 
0 0 0 0 0 0 0 0 0 
0 0 0 0 0 0 0 0 0 
0 0 0 0 0 0 0 0 0 
0 0 0 0 0 0 0 0 0 
0 0 0 0 0 0 0 0 0 
0 0 0 0 0 0 0 0 0 
0 0 0 0 0 0 0 0 0 
0 0 0 0 0 0 0 0 0 
0 0 0 0 0 0 0 0 0 
0 0 0 0 0 0 0 0 0 
0 0 0 0 0 0 0 0 0 
0 0 0 0 0 0 0 0 0 
0 0 0 0 0 0 0 0 0 
0 0 0 0 0 0 0 0 0 
0 0 0 0 0 0 0 0 0 
0 0 0 0 0 0 0 0 0 
0 0 0 0 0 0 0 0 0 
0 0 0 0 0 0 0 0 0 
0 0 0 0 0 0 0 0 0 
0 0 0 0 0 0 0 0 0 
0 0 0 0 0 0 0 0 0 
0 0 0 0 0 0 0 0 0 
0 0 0 0 0 0 0 0 0 
0 0 0 0 0 0 0 0 0 
0 0 0 0 0 0 0 0 0 
0 0 0 0 0 0 0 0 0 
0 0 0 0 0 0 0 0 0 
0 0 0 0 0 0 0 0 0 
0 0 0 0 0 0 0 0 0 
0 0 0 0 0 0 0 0 0 
0 0 0 0 0 0 0 0 0 
0 0 0 0 0 0 0 0 0 
0 0 0 0 0 0 0 0 0 
0 0 0 0 0 0 0 0 0 
0 0 0 0 0 0 0 0 0 
0 0 0 0 0 0 0 0 0 
0 0 0 0 0 0 0 0 0 
0 0 0 0 0 0 0 0 0 
0 0 0 0 0 0 0 0 0 
0 0 0 0 0 0 0 0 0 
0 0 0 0 0 0 0 0 0 
0 0 0 0 0 0 0 0 0 
0 0 0 0 0 0 0 0 0 
0 0 0 0 0 0 0 0 0 
0 0 0 0 0 0 0 0 0 
0 0 0 0 0 0 0 0 0 
0 0 0 0 0 0 0 0 0 
0 0 0 0 0 0 0 0 0 
0 0 0 0 0 0 0 0 0 
0 0 0 0 0 0 0 0 0 
0 0 0 0 0 0 0 0 0 
0 0 0 0 0 0 0 0 0 
0 0 0 0 0 0 0 0 0 
0 0 0 0 0 0 0 0 0 
0 0 0 0 0 0 0 0 0 
0 0 0 0 0 0 0 0 0 
0 0 0 0 0 0 
v 3 500 double
0 0 -0.59235095 0 0 -0.59235095 0 0 -0.59235095 
0 0 -0.59235095 0 0 -0.59235095 0 0 -0.59235095 
0 0 -0.59235095 0 0 -0.59235095 0 0 -0.59235095 
0 0 -0.59235095 0 0 -0.59235095 0 0 -0.59235095 
0 0 -0.59235095 0 0 -0.59235095 0 0 -0.59235095 
0 0 -0.59235095 0 0 -0.59235095 0 0 -0.59235095 
0 0 -0.59235095 0 0 -0.59235095 0 0 -0.59235095 
0 0 -0.59235095 0 0 -0.59235095 0 0 -0.59235095 
0 0 -0.59235095 0 0 -0.59235095 0 0 -0.59235095 
0 0 -0.59235095 0 0 -0.59235095 0 0 -0.59235095 
0 0 -0.59235095 0 0 -0.59235095 0 0 -0.59235095 
0 0 -0.59235095 0 0 -0.59235095 0 0 -0.59235095 
0 0 -0.59235095 0 0 -0.59235095 0 0 -0.59235095 
0 0 -0.59235095 0 0 -0.59235095 0 0 -0.59235095 
0 0 -0.59235095 0 0 -0.59235095 0 0 -0.59235095 
0 0 -0.59235095 0 0 -0.59235095 0 0 -0.59235095 
0 0 -0.59235095 0 0 -0.59235095 0 0 -0.59235095 
0 0 -0.59235095 0 0 -0.59235095 0 0 -0.59235095 
0 0 -0.59235095 0 0 -0.59235095 0 0 -0.59235095 
0 0 -0.59235095 0 0 -0.29805095 0 0 -0.29805095 
0 0 -0.29805095 0 0 -0.29805095 0 0 -0.29805095 
0 0 -0.29805095 0 0 -0.29805095 0 0 -0.29805095 
0 0 -0.29805095 0 0 -0.29805095 0 0 -0.29805095 
0 0 -0.29805095 0 0 -0.29805095 0 0 -0.29805095 
0 0 -0.29805095 0 0 -0.29805095 0 0 -0.29805095 
0 0 -0.29805095 0 0 -0.29805095 0 0 -0.29805095 
0 0 -0.29805095 0 0 -0.29805095 0 0 -0.29805095 
0 0 -0.29805095 0 0 -0.29805095 0 0 -0.29805095 
0 0 -0.29805095 0 0 -0.29805095 0 0 -0.29805095 
0 0 -0.29805095 0 0 -0.29805095 0 0 -0.29805095 
0 0 -0.29805095 0 0 -0.29805095 0 0 -0.29805095 
0 0 -0.29805095 0 0 -0.29805095 0 0 -0.29805095 
0 0 -0.29805095 0 0 -0.29805095 0 0 -0.29805095 
0 0 -0.29805095 0 0 -0.29805095 0 0 -0.29805095 
0 0 -0.29805095 0 0 -0.29805095 0 0 -0.29805095 
0 0 -0.29805095 0 0 -0.29805095 0 0 -0.29805095 
0 0 -0.29805095 0 0 -0.29805095 0 0 -0.29805095 
0 0 -0.29805095 0 0 -0.29805095 0 0 -0.29805095 
0 0 -0.29805095 0 0 -0.29805095 0 0 -0.29805095 
0 0 -0.59235095 0 0 -0.59235095 0 0 -0.59235095 
0 0 -0.59235095 0 0 -0.59235095 0 0 -0.59235095 
0 0 -0.59235095 0 0 -0.59235095 0 0 -0.59235095 
0 0 -0.59235095 0 0 -0.59235095 0 0 -0.59235095 
0 0 -0.59235095 0 0 -0.59235095 0 0 -0.59235095 
0 0 -0.59235095 0 0 -0.59235095 0 0 -0.59235095 
0 0 -0.59235095 0 0 -0.59235095 0 0 -0.59235095 
0 0 -0.59235095 0 0 -0.59235095 0 0 -0.59235095 
0 0 -0.59235095 0 0 -0.59235095 0 0 -0.59235095 
0 0 -0.59235095 0 0 -0.59235095 0 0 -0.59235095 
0 0 -0.59235095 0 0 -0.59235095 0 0 -0.59235095 
0 0 -0.59235095 0 0 -0.59235095 0 0 -0.59235095 
0 0 -0.59235095 0 0 -0.59235095 0 0 -0.59235095 
0 0 -0.59235095 0 0 -0.59235095 0 0 -0.59235095 
0 0 -0.59235095 0 0 -0.59235095 0 0 -0.59235095 
0 0 -0.59235095 0 0 -0.59235095 0 0 -0.59235095 
0 0 -0.59235095 0 0 -0.59235095 0 0 -0.59235095 
0 0 -0.59235095 0 0 -0.59235095 0 0 -0.59235095 
0 0 -0.59235095 0 0 -0.59235095 0 0 -0.59235095 
0 0 -0.59235095 0 0 -0.59235095 0 0 -0.59235095 
0 0 -0.59235095 0 0 -0.59235095 0 0 -0.59235095 
0 0 -0.59235095 0 0 -0.59235095 0 0 -0.59235095 
0 0 -0.59235095 0 0 -0.59235095 0 0 -0.59235095 
0 0 -0.59235095 0 0 -0.59235095 0 0 -0.59235095 
0 0 -0.59235095 0 0 -0.59235095 0 0 -0.59235095 
0 0 -0.59235095 0 0 -0.59235095 0 0 -0.59235095 
0 0 -0.59235095 0 0 -0.59235095 0 0 -0.59235095 
0 0 -0.59235095 0 0 -0.59235095 0 0 -0.59235095 
0 0 -0.59235095 0 0 -0.59235095 0 0 -0.59235095 
0 0 -0.59235095 0 0 -0.59235095 0 0 -0.59235095 
0 0 -0.59235095 0 0 -0.59235095 0 0 -0.59235095 
0 0 -0.59235095 0 0 -0.59235095 0 0 -0.59235095 
0 0 -0.59235095 0 0 -0.59235095 0 0 -0.59235095 
0 0 -0.59235095 0 0 -0.59235095 0 0 -0.59235095 
0 0 -0.59235095 0 0 -0.59235095 0 0 -0.59235095 
0 0 -0.59235095 0 0 -0.59235095 0 0 -0.59235095 
0 0 -0.59235095 0 0 -0.59235095 0 0 -0.59235095 
0 0 -0.59235095 0 0 -0.59235095 0 0 -0.59235095 
0 0 -0.59235095 0 0 -0.59235095 0 0 -0.59235095 
0 0 -0.59235095 0 0 -0.59235095 0 0 -0.59235095 
0 0 -0.59235095 0 0 -0.59235095 0 0 -0.59235095 
0 0 -0.59235095 0 0 -0.59235095 0 0 -0.59235095 