# vtk DataFile Version 5.1
Generated by LIGGGHTS
ASCII
DATASET POLYDATA
POINTS 1000 float
0.00183995 -0.0306161 0.00175332 0.00351129 -0.0283039 0.0016814 0.000671285 -0.0280099 0.00167388 
0.00594445 -0.0160734 0.00156094 -0.0028235 -0.0126618 0.00154842 0.00216206 -0.0132917 0.00153208 
0.00501095 -0.0133757 0.00172989 0.00781178 -0.0139255 0.00157086 0.0165471 -0.01263 0.00189804 
0.0219752 -0.0128913 0.00149052 0.00246601 -0.0104682 0.00166662 0.0053309 -0.0105117 0.00152183 
0.00819414 -0.0104402 0.00153823 0.0110386 -0.0103694 0.00149141 0.0136446 -0.0115246 0.00154458 
0.0192902 -0.0119219 0.00158773 0.0229289 -0.0103673 0.00242571 -0.0449208 -0.00925667 0.00168673 
-0.0420853 -0.00899748 0.00191999 -0.00634523 -0.00764858 0.00148154 -0.00449533 -0.00961838 0.00237062 
-0.000337057 -0.00992704 0.00153214 0.00388716 -0.00801891 0.00160942 0.00672867 -0.0080137 0.00165897 
0.00957 -0.00791588 0.00151793 0.0123772 -0.00791553 0.00207339 0.0149737 -0.00901462 0.00152048 
0.0203147 -0.00929911 0.00196712 0.0253903 -0.00904721 0.0018548 0.0281849 -0.00943978 0.00148715 
0.0322381 -0.00787993 0.00156073 -0.0436994 -0.006684 0.00148278 -0.00355447 -0.00704411 0.00152116 
-0.000749108 -0.00715901 0.00207489 0.00805205 -0.0054857 0.00154075 0.0129607 -0.00518272 0.00148766 
0.015593 -0.00624443 0.00151349 0.0181546 -0.00749667 0.00148886 0.0237207 -0.00674092 0.00182938 
0.0271049 -0.00678948 0.00150701 0.0312668 -0.00519485 0.0016648 -0.000876368 -0.00272433 0.00147432 
0.00632711 -0.00320091 0.00151316 0.011159 -0.00300114 0.00181458 0.0175312 -0.00416541 0.0014926 
0.0202209 -0.00375607 0.00228382 0.0229584 -0.00400363 0.00157172 0.0257403 -0.00433343 0.00205023 
0.0285474 -0.00432053 0.00151978 -0.00491312 -0.000462584 0.00207415 -0.00208984 -0.000313051 0.00240433 
0.0040711 -0.00144324 0.00151853 0.00671265 -0.000368856 0.00150316 0.0140059 -0.000139871 0.00197862 
0.0175375 -0.00132098 0.00146312 0.0226153 -0.00116426 0.0015956 0.0346748 -0.00195468 0.00152743 
0.00341648 -0.0155376 0.00274225 0.00562352 -0.0173419 0.00410221 0.00221087 -0.013541 0.00438109 
0.00636218 -0.0145837 0.00395171 0.00912478 -0.0128912 0.00387288 0.0145746 -0.013347 0.00382435 
0.000782942 -0.0111223 0.00386575 0.00401621 -0.0113891 0.00387961 0.00705303 -0.0110563 0.00456576 
0.0119035 -0.0123855 0.00362019 0.0101092 -0.0102278 0.00418795 0.0174151 -0.0100086 0.00261648 
0.0182032 -0.0122484 0.00419681 0.0212988 -0.011991 0.00410841 -0.0437909 -0.00802409 0.00399499 
-0.0054367 -0.0076072 0.00417744 -0.00264101 -0.00817089 0.00396509 0.00260993 -0.00890683 0.00404726 
0.0135619 -0.00909616 0.00438232 0.0160506 -0.00780838 0.00386851 0.0188778 -0.0080954 0.00416771 
0.0214788 -0.00917872 0.00456897 0.024319 -0.0089548 0.00449668 0.0271426 -0.00901092 0.0041083 
0.0306965 -0.00998716 0.00271789 -0.0461879 -0.00697358 0.00284764 -0.00742233 -0.00574422 0.00329252 
-0.000331507 -0.00679893 0.00489247 -0.00238692 -0.00535682 0.00352611 0.00283725 -0.00611227 0.00344685 
0.00594737 -0.00690555 0.00417263 0.0136305 -0.00626925 0.00404617 0.019233 -0.00526332 0.0044972 
0.0211368 -0.00679653 0.00301873 0.024375 -0.00609709 0.00453332 0.0272238 -0.00616256 0.00428011 
0.0296638 -0.0073236 0.00267172 0.0320205 -0.00653315 0.00406825 -0.00588399 -0.00345541 0.00405285 
-0.00343474 -0.00281826 0.00272767 -0.0010628 -0.00257395 0.00429946 0.000370041 -0.00472422 0.00307261 
0.00176247 -0.00276886 0.00460687 0.0042155 -0.00358983 0.00339891 0.00865435 -0.00319284 0.00314004 
0.0132335 -0.00343896 0.00371597 0.0158585 -0.00451645 0.0037788 0.0180675 -0.00271887 0.00388284 
0.0212471 -0.00328464 0.00490457 0.0240046 -0.00329998 0.00412173 0.0267769 -0.00263961 0.00409339 
0.0297331 -0.00482336 0.00405494 0.0305758 -0.00256054 0.00250498 -0.00747474 -0.00162699 0.00254791 
0.000676441 -0.000787549 0.00288159 0.0063323 -0.00174719 0.00396546 0.0132619 -0.000213455 0.0047421 
0.016589 -0.000253728 0.00390203 0.0200323 -0.000958801 0.00279109 0.0286924 -0.000636383 0.00344619 
0.032466 -0.0011611 0.0041404 0.00409736 -0.0153741 0.00550221 0.00531621 -0.0128344 0.00595772 
0.00813222 -0.0142408 0.00617675 0.0109109 -0.0136185 0.00599504 -0.00288794 -0.0104097 0.00737024 
-0.000325061 -0.0122804 0.00622675 0.0023773 -0.0113594 0.0062144 0.0106012 -0.0109424 0.00689416 
0.0133306 -0.0121126 0.0060781 0.0174583 -0.0123447 0.00694365 0.0197215 -0.010795 0.00615397 
0.0244146 -0.01041 0.00695604 -0.00516425 -0.00766722 0.00702646 -0.000787009 -0.00952585 0.00564569 
-0.00231184 -0.00762506 0.00711586 0.00168199 -0.00865572 0.00675541 0.00503692 -0.00926656 0.00550387 
0.00896096 -0.00784668 0.00530295 0.0115823 -0.00833259 0.0062976 0.0171084 -0.00993736 0.00544445 
0.0150564 -0.00844021 0.00671664 0.0218178 -0.0093061 0.0073972 0.0244943 -0.00755185 0.00698036 
-0.0160707 -0.00771866 0.0078854 -0.00438167 -0.00534981 0.00556275 0.00164641 -0.0058083 0.00670994 
0.00426227 -0.00520734 0.00574223 0.00653799 -0.00646279 0.0069174 0.00929858 -0.00605188 0.00750656 
0.0115151 -0.00550904 0.00580593 0.0217393 -0.00599398 0.00566978 0.0272675 -0.00679702 0.00706709 
-0.00836595 -0.0044104 0.00561407 -0.00601159 -0.00343489 0.00691139 -0.00362323 -0.00260611 0.00556693 
-0.00168545 -0.00462211 0.00618101 0.00323563 -0.00288184 0.00704605 0.00688476 -0.00434004 0.00505098 
0.00948491 -0.00348804 0.00585982 0.0125431 -0.00291093 0.00641514 0.0146293 -0.00485624 0.0063206 
0.0192041 -0.00366518 0.00687055 0.0232768 -0.00389498 0.00681932 0.0259963 -0.00441848 0.00617984 
0.0287893 -0.00438139 0.00671406 -0.0101791 -0.00050279 0.00680067 -0.00764435 -0.00166467 0.00539367 
8.61797e-05 -0.00249892 0.00691045 0.00660223 -0.000271294 0.00638152 0.015165 -0.00220933 0.00541779 
0.0177144 -0.00129693 0.00632604 0.0225994 -0.00117912 0.00626986 0.0271907 -0.00207398 0.00727913 
0.0301072 -0.00228511 0.00529794 -0.0224798 -0.0151307 0.00995853 0.00360361 -0.0129624 0.00823555 
0.00614621 -0.0140509 0.00891822 0.00891123 -0.0147601 0.00888578 0.0111441 -0.0129819 0.00878351 
0.00303991 -0.0102106 0.00873766 0.00551282 -0.0113518 0.00961622 0.00744493 -0.011877 0.00759717 
0.00824678 -0.0106121 0.0100263 0.011846 -0.0102545 0.00936685 0.0167161 -0.010758 0.00918927 
0.0211259 -0.0119172 0.00836209 -0.00442227 -0.00909487 0.0093894 0.000119663 -0.00904737 0.00911481 
0.00614438 -0.00883344 0.00845018 0.00962036 -0.00873731 0.00836685 0.0130772 -0.00778034 0.00865915 
0.0158265 -0.00786583 0.00940395 0.0193449 -0.00969908 0.00876268 -0.00960673 -0.00502398 0.0091746 
-0.00724158 -0.00585085 0.0078058 -0.00309386 -0.0065846 0.00965725 -0.000575241 -0.00584219 0.00850837 
0.00391672 -0.00719229 0.00775623 0.00649397 -0.005905 0.00969502 0.0199467 -0.00716635 0.00756587 
0.0224721 -0.0061288 0.00841755 -0.00861953 -0.00268837 0.00786353 -0.0070736 -0.00393362 0.0099189 
-0.00375078 -0.00403205 0.00855364 -0.000536577 -0.00284011 0.00967192 0.00360846 -0.00353194 0.00980885 
0.0074519 -0.00392509 0.00783144 0.0101842 -0.00357616 0.00862481 0.0126563 -0.0049801 0.00837138 
0.0125435 -0.00261649 0.0099561 0.0166067 -0.00328478 0.00804365 0.0187873 -0.00264435 0.00976275 
0.025633 -0.0037783 0.00895817 -0.0104359 -0.00126711 0.00953967 -0.00512417 -0.00152225 0.00883313 
-0.00242074 -0.00159021 0.0079374 0.00109549 -0.000651107 0.0088475 0.00552681 -0.00191815 0.00844804 
0.0143648 -0.00149989 0.00806702 0.0169168 -0.000621964 0.00899323 0.0201728 -0.00113267 0.00777959 
0.0246524 -0.00119662 0.00825959 0.0299156 -0.00218014 0.00814509 0.00422408 -0.0135074 0.0109665 
0.0143848 -0.00998617 0.0106557 0.000847534 -0.00940189 0.0118488 0.00246692 -0.00779248 0.0101365 
0.00782841 -0.00800005 0.0111025 0.010895 -0.00795288 0.0107854 0.0132411 -0.00804269 0.0124105 
0.0178602 -0.00896913 0.0110849 0.0217909 -0.00984854 0.0102016 -0.000659812 -0.00710251 0.0110653 
0.00219922 -0.00578257 0.0121439 0.00493307 -0.00498789 0.01188 0.00925537 -0.00564761 0.0103389 
0.0140852 -0.0059753 0.0106324 0.0166593 -0.00648593 0.0117627 0.0190682 -0.0065337 0.0102112 
0.0231389 -0.00742844 0.0108751 -0.00307415 -0.00427151 0.0113223 -0.000311994 -0.00443147 0.0120277 
0.00736015 -0.0036166 0.0111512 0.0101768 -0.00318942 0.0114563 0.0174461 -0.00376671 0.0120122 
0.0153774 -0.00249907 0.010514 0.0208097 -0.00480668 0.0116779 0.0234484 -0.0046057 0.0106094 
0.00160761 -0.00238077 0.0114939 0.00500813 -0.00214928 0.011884 0.00747656 -0.000779845 0.0115506 
0.0215978 -0.00245775 0.010248 0.0123136 -0.00173107 0.0126646 -0.0337308 -0.0217671 0.0266583 
-0.00946386 0.000118252 0.00149755 -0.00752084 0.00202132 0.00237898 -0.00353514 0.00197341 0.00149436 
0.0164316 0.00130877 0.00152241 0.0215441 0.00140157 0.00223501 0.0327599 0.000156633 0.00162514 
0.0355641 0.000752654 0.00166936 -0.0100873 0.00289442 0.00148361 -0.00560131 0.00394339 0.00148531 
0.016084 0.00405357 0.00224998 0.0249497 0.00314265 0.00148134 0.0273735 0.00429597 0.00244736 
0.0336487 0.00277952 0.00229331 -0.0119377 0.00724129 0.00197085 -0.00633218 0.00672428 0.00153907 
0.000384717 0.00601365 0.00153354 0.0113741 0.00690755 0.00149977 0.0182846 0.00571038 0.00150531 
0.0281403 0.00703834 0.00221983 0.0308907 0.00628244 0.00226911 0.0345432 0.00543553 0.0017263 
-0.00371245 0.00989275 0.00221461 0.00118984 0.00874577 0.00153277 0.00892868 0.00848588 0.00149743 
0.0114458 0.00975693 0.00158825 0.0264584 0.00998253 0.00156516 0.0331719 0.00794038 0.00188143 
-0.0120306 0.0101014 0.00202993 -0.00985657 0.0118887 0.0014906 -0.00712537 0.0113475 0.00216466 
-0.00102453 0.0105522 0.00146834 0.00353247 0.010214 0.00221263 0.00623641 0.0109665 0.00156095 
0.00908293 0.0113551 0.00161289 0.0139688 0.0110342 0.00191648 0.0192179 0.011862 0.00197134 
0.0240615 0.0114594 0.00198207 0.0292899 0.0103343 0.0014519 0.031109 0.0124631 0.00185859 
-0.011523 0.014083 0.00224868 -0.00881088 0.0145563 0.00149017 0.0042007 0.0129433 0.00186435 
0.00953346 0.0141688 0.00185823 0.0168029 0.0133056 0.00148527 0.0212246 0.013909 0.00202319 
[...]
POINT_DATA 1000
FIELD FieldData 7
id 1 1000 int
10 41 24 49 18 266 25 280 297 
3 263 22 12 290 285 53 27 83 
29 302 36 282 268 251 277 295 37 
48 21 9 141 23 17 2 16 50 
30 46 15 39 247 43 104 38 33 
7 19 274 309 191 107 235 6 378 
138 164 248 254 1 252 52 262 504 
298 256 535 301 520 56 296 272 51 
270 58 306 258 13 45 294 264 260 
32 40 259 253 28 287 278 31 273 
4 281 305 34 65 304 205 54 47 
303 308 44 8 5 42 289 261 527 
292 279 291 11 35 434 67 14 554 
689 26 267 551 558 761 509 531 555 
544 543 501 533 549 524 525 508 548 
552 526 257 518 521 503 216 293 534 
283 528 532 286 284 767 507 506 276 
255 510 265 275 300 269 556 307 530 
788 804 529 536 158 299 288 547 807 
511 20 515 810 773 766 769 787 789 
805 774 782 751 768 765 776 755 516 
797 546 784 502 757 522 540 542 538 
512 519 794 523 505 764 545 539 517 
557 513 790 752 792 806 541 648 537 
271 550 514 809 801 775 802 781 796 
808 777 795 786 803 778 798 762 553 
758 791 800 763 759 753 783 793 780 
754 772 785 779 756 799 770 760 57 
193 339 102 55 186 136 160 357 199 
161 131 242 218 363 89 429 112 331 
384 425 234 237 69 63 206 130 433 
455 227 229 118 243 123 116 211 238 
157 149 169 223 175 204 84 62 155 
203 165 80 197 178 194 183 472 154 
249 179 222 90 127 310 120 87 332 
208 117 226 86 182 110 64 430 105 
159 407 404 75 231 399 174 484 740 
184 77 60 103 195 367 98 236 360 
151 177 143 239 156 487 431 392 496 
190 139 749 401 111 114 233 91 416 
397 323 113 389 482 72 66 685 393 
214 499 209 68 344 413 202 330 328 
380 724 96 232 359 423 94 212 314 
445 119 460 419 313 101 85 122 73 
213 189 333 147 99 92 317 128 210 
246 145 220 241 180 352 448 142 185 
78 124 88 198 150 61 100 408 166 
428 415 490 93 79 311 163 240 462 
492 570 346 427 471 387 146 59 221 
115 201 385 465 483 394 391 82 126 
245 196 109 106 412 495 379 347 435 
140 436 167 97 364 376 144 366 315 
464 491 188 341 451 437 422 463 418 
402 390 447 349 170 162 225 176 439 
224 153 334 76 388 168 81 148 459 
125 603 329 640 565 219 370 320 95 
134 192 207 200 679 709 457 369 675 
132 477 383 596 688 698 449 486 468 
382 129 655 642 632 678 732 365 673 
900 666 629 452 450 454 338 362 730 
680 563 335 398 727 912 438 173 172 
135 355 250 358 625 475 626 707 498 
152 70 466 470 396 456 561 343 476 
340 350 692 473 215 405 181 342 622 
598 494 74 480 137 244 368 373 461 
646 411 377 714 337 420 348 230 371 
386 674 409 406 414 481 474 594 395 
336 444 741 467 319 575 318 400 722 
620 322 728 590 560 171 581 702 479 
485 750 618 432 356 668 500 615 592 
381 616 71 564 623 442 879 898 228 
426 372 638 458 922 121 326 353 735 
325 571 567 613 577 663 945 652 441 
573 572 876 974 601 695 469 927 981 
992 967 862 703 417 440 747 645 915 
701 566 847 890 936 744 579 670 569 
593 738 930 589 979 316 656 903 611 
591 726 664 607 453 493 619 718 653 
410 658 609 446 870 606 354 217 108 
403 630 489 682 654 745 650 955 715 
562 361 421 497 488 617 599 610 624 
700 424 710 723 568 634 748 321 614 
327 312 578 828 660 733 739 585 588 
743 996 933 375 672 691 697 816 586 
600 587 621 595 665 597 576 643 651 
644 604 559 818 868 712 716 602 628 
639 662 720 988 734 608 999 708 925 
746 989 696 631 686 681 848 690 635 
811 641 729 693 699 860 853 906 919 
612 574 932 909 704 877 929 958 771 
959 896 649 717 961 886 921 984 971 
835 647 684 633 711 659 731 817 869 
840 837 942 964 882 814 627 843 705 
582 935 871 895 856 855 669 637 924 
812 917 953 657 859 683 584 374 671 
324 345 736 914 580 842 954 823 867 
719 742 908 815 824 897 902 583 976 
957 977 713 938 949 478 881 963 836 
721 948 968 826 905 844 694 676 636 
667 834 737 970 857 918 838 725 845 
993 852 889 893 880 944 822 947 987 
865 965 875 687 885 854 829 819 661 
940 952 980 986 827 830 858 978 874 
878 962 821 913 133 861 946 850 939 
928 907 841 997 825 916 941 833 901 
891 931 911 937 985 990 926 975 849 
998 910 813 863 943 888 873 883 677 
866 951 872 969 983 920 706 605 950 
851 846 934 894 1000 960 884 982 995 
956 966 904 973 923 994 831 899 972 
887 820 832 187 991 892 839 443 351 
864 
type 1 1000 int
1 1 1 1 1 1 1 1 1 
1 1 1 1 1 1 1 1 1 
1 1 1 1 1 1 1 1 1 
1 1 1 1 1 1 1 1 1 
1 1 1 1 1 1 1 1 1 
1 1 1 1 1 1 1 1 1 
1 1 1 1 1 1 1 1 1 
1 1 1 1 1 1 1 1 1 
1 1 1 1 1 1 1 1 1 
1 1 1 1 1 1 1 1 1 
1 1 1 1 1 1 1 1 1 
1 1 1 1 1 1 1 1 1 
1 1 1 1 1 1 1 1 1 
1 1 1 1 1 1 1 1 1 
1 1 1 1 1 1 1 1 1 
1 1 1 1 1 1 1 1 1 
1 1 1 1 1 1 1 1 1 
1 1 1 1 1 1 1 1 1 
1 1 1 1 1 1 1 1 1 
1 1 1 1 1 1 1 1 1 
1 1 1 1 1 1 1 1 1 
1 1 1 1 1 1 1 1 1 
1 1 1 1 1 1 1 1 1 
1 1 1 1 1 1 1 1 1 
1 1 1 1 1 1 1 1 1 
1 1 1 1 1 1 1 1 1 
1 1 1 1 1 1 1 1 1 
1 1 1 1 1 1 1 1 1 
1 1 1 1 1 1 1 1 1 
1 1 1 1 1 1 1 1 1 
1 1 1 1 1 1 1 1 1 
1 1 1 1 1 1 1 1 1 
1 1 1 1 1 1 1 1 1 
1 1 1 1 1 1 1 1 1 
1 1 1 1 1 1 1 1 1 
1 1 1 1 1 1 1 1 1 
1 1 1 1 1 1 1 1 1 
1 1 1 1 1 1 1 1 1 
1 1 1 1 1 1 1 1 1 
1 1 1 1 1 1 1 1 1 
1 1 1 1 1 1 1 1 1 
1 1 1 1 1 1 1 1 1 
1 1 1 1 1 1 1 1 1 
1 1 1 1 1 1 1 1 1 
1 1 1 1 1 1 1 1 1 
1 1 1 1 1 1 1 1 1 
1 1 1 1 1 1 1 1 1 
1 1 1 1 1 1 1 1 1 
1 1 1 1 1 1 1 1 1 
1 1 1 1 1 1 1 1 1 
1 1 1 1 1 1 1 1 1 
1 1 1 1 1 1 1 1 1 
1 1 1 1 1 1 1 1 1 
1 1 1 1 1 1 1 1 1 
1 1 1 1 1 1 1 1 1 
1 1 1 1 1 1 1 1 1 
1 1 1 1 1 1 1 1 1 
1 1 1 1 1 1 1 1 1 
1 1 1 1 1 1 1 1 1 
1 1 1 1 1 1 1 1 1 
1 1 1 1 1 1 1 1 1 
1 1 1 1 1 1 1 1 1 
1 1 1 1 1 1 1 1 1 
1 1 1 1 1 1 1 1 1 
1 1 1 1 1 1 1 1 1 
1 1 1 1 1 1 1 1 1 
1 1 1 1 1 1 1 1 1 
1 1 1 1 1 1 1 1 1 
1 1 1 1 1 1 1 1 1 
1 1 1 1 1 1 1 1 1 
1 1 1 1 1 1 1 1 1 
1 1 1 1 1 1 1 1 1 
1 1 1 1 1 1 1 1 1 
1 1 1 1 1 1 1 1 1 
1 1 1 1 1 1 1 1 1 
1 1 1 1 1 1 1 1 1 
1 1 1 1 1 1 1 1 1 
1 1 1 1 1 1 1 1 1 
1 1 1 1 1 1 1 1 1 
1 1 1 1 1 1 1 1 1 
1 1 1 1 1 1 1 1 1 
1 1 1 1 1 1 1 1 1 
1 1 1 1 1 1 1 1 1 
1 1 1 1 1 1 1 1 1 
1 1 1 1 1 1 1 1 1 
1 1 1 1 1 1 1 1 1 
1 1 1 1 1 1 1 1 1 
1 1 1 1 1 1 1 1 1 
1 1 1 1 1 1 1 1 1 
1 1 1 1 1 1 1 1 1 
1 1 1 1 1 1 1 1 1 
1 1 1 1 1 1 1 1 1 
1 1 1 1 1 1 1 1 1 
1 1 1 1 1 1 1 1 1 
1 1 1 1 1 1 1 1 1 
1 1 1 1 1 1 1 1 1 
1 1 1 1 1 1 1 1 1 
1 1 1 1 1 1 1 1 1 
1 1 1 1 1 1 1 1 1 
1 1 1 1 1 1 1 1 1 
1 1 1 1 1 1 1 1 1 
1 1 1 1 1 1 1 1 1 
1 1 1 1 1 1 1 1 1 
1 1 1 1 1 1 1 1 1 
1 1 1 1 1 1 1 1 1 
1 1 1 1 1 1 1 1 1 
1 1 1 1 1 1 1 1 1 
1 1 1 1 1 1 1 1 1 
1 1 1 1 1 1 1 1 1 
1 1 1 1 1 1 1 1 1 
1 1 1 1 1 1 1 1 1 
1 
i 3 1000 int
0 0 0 0 0 0 0 0 0 
0 0 0 0 0 0 0 0 0 
0 0 0 0 0 0 0 0 0 
0 0 0 0 0 0 0 0 0 
0 0 0 0 0 0 0 0 0 
0 0 0 0 0 0 0 0 0 
0 0 0 0 0 0 0 0 0 
0 0 0 0 0 0 0 0 0 
0 0 0 0 0 0 0 0 0 
0 0 0 0 0 0 0 0 0 
0 0 0 0 0 0 0 0 0 
0 0 0 0 0 0 0 0 0 
0 0 0 0 0 0 0 0 0 
0 0 0 0 0 0 0 0 0 
0 0 0 0 0 0 0 0 0 
0 0 0 0 0 0 0 0 0 
0 0 0 0 0 0 0 0 0 
0 0 0 0 0 0 0 0 0 
0 0 0 0 0 0 0 0 0 
0 0 0 0 0 0 0 0 0 
0 0 0 0 0 0 0 0 0 
0 0 0 0 0 0 0 0 0 
0 0 0 0 0 0 0 0 0 
0 0 0 0 0 0 0 0 0 
0 0 0 0 0 0 0 0 0 
0 0 0 0 0 0 0 0 0 
0 0 0 0 0 0 0 0 0 
0 0 0 0 0 0 0 0 0 
0 0 0 0 0 0 0 0 0 
0 0 0 0 0 0 0 0 0 
0 0 0 0 0 0 0 0 0 
0 0 0 0 0 0 0 0 0 
0 0 0 0 0 0 0 0 0 
0 0 0 0 0 0 0 0 0 
0 0 0 0 0 0 0 0 0 
0 0 0 0 0 0 0 0 0 
0 0 0 0 0 0 0 0 0 
0 0 0 0 0 0 0 0 0 
0 0 0 0 0 0 0 0 0 
0 0 0 0 0 0 0 0 0 
0 0 0 0 0 0 0 0 0 
0 0 0 0 0 0 0 0 0 
0 0 0 0 0 0 0 0 0 
0 0 0 0 0 0 0 0 0 
0 0 0 0 0 0 0 0 0 
0 0 0 0 0 0 0 0 0 
0 0 0 0 0 0 0 0 0 
0 0 0 0 0 0 0 0 0 
0 0 0 0 0 0 0 0 0 
0 0 0 0 0 0 0 0 0 
0 0 0 0 0 0 0 0 0 
0 0 0 0 0 0 0 0 0 
0 0 0 0 0 0 0 0 0 
0 0 0 0 0 0 0 0 0 
0 0 0 0 0 0 0 0 0 
0 0 0 0 0 0 0 0 0 
0 0 0 0 0 0 0 0 0 
0 0 0 0 0 0 0 0 0 
0 0 0 0 0 0 0 0 0 
0 0 0 0 0 0 0 0 0 
0 0 0 0 0 0 0 0 0 
0 0 0 0 0 0 0 0 0 
0 0 0 0 0 0 0 0 0 
0 0 0 0 0 0 0 0 0 
0 0 0 0 0 0 0 0 0 
0 0 0 0 0 0 0 0 0 
0 0 0 0 0 0 0 0 0 
0 0 0 0 0 0 0 0 0 
0 0 0 0 0 0 0 0 0 
0 0 0 0 0 0 0 0 0 
0 0 0 0 0 0 0 0 0 
0 0 0 0 0 0 0 0 0 
0 0 0 0 0 0 0 0 0 
0 0 0 0 0 0 0 0 0 
0 0 0 0 0 0 0 0 0 
0 0 0 0 0 0 0 0 0 
0 0 0 0 0 0 0 0 0 
0 0 0 0 0 0 0 0 0 
0 0 0 0 0 0 0 0 0 
0 0 0 0 0 0 0 0 0 
0 0 0 0 0 0 0 0 0 
0 0 0 0 0 0 0 0 0 
0 0 0 0 0 0 0 0 0 
0 0 0 0 0 0 0 0 0 
0 0 0 0 0 0 0 0 0 
0 0 0 0 0 0 0 0 0 
0 0 0 0 0 0 0 0 0 
0 0 0 0 0 0 0 0 0 
0 0 0 0 0 0 0 0 0 
0 0 0 0 0 0 0 0 0 
0 0 0 0 0 0 0 0 0 
0 0 0 0 0 0 0 0 0 
0 0 0 0 0 0 0 0 0 
0 0 0 0 0 0 0 0 0 
0 0 0 0 0 0 0 0 0 
0 0 0 0 0 0 0 0 0 
0 0 0 0 0 0 0 0 0 
0 0 0 0 0 0 0 0 0 
0 0 0 0 0 0 0 0 0 
0 0 0 0 0 0 0 0 0 
0 0 0 0 0 0 0 0 0 
0 0 0 0 0 0 0 0 0 
0 0 0 0 0 0 0 0 0 
0 0 0 0 0 0 0 0 0 
0 0 0 0 0 0 0 0 0 
0 0 0 0 0 0 0 0 0 
0 0 0 0 0 0 0 0 0 
0 0 0 0 0 0 0 0 0 
0 0 0 0 0 0 0 0 0 
0 0 0 0 0 0 0 0 0 
0 0 0 0 0 0 0 0 0 
0 0 0 0 0 0 0 0 0 
0 0 0 0 0 0 0 0 0 
0 0 0 0 0 0 0 0 0 
0 0 0 0 0 0 0 0 0 
0 0 0 0 0 0 0 0 0 
0 0 0 0 0 0 0 0 0 
0 0 0 0 0 0 0 0 0 
0 0 0 0 0 0 0 0 0 
0 0 0 0 0 0 0 0 0 
0 0 0 0 0 0 0 0 0 
0 0 0 0 0 0 0 0 0 
0 0 0 0 0 0 0 0 0 
0 0 0 0 0 0 0 0 0 
0 0 0 0 0 0 0 0 0 
0 0 0 0 0 0 0 0 0 
0 0 0 0 0 0 0 0 0 
0 0 0 0 0 0 0 0 0 
0 0 0 0 0 0 0 0 0 
0 0 0 0 0 0 0 0 0 
0 0 0 0 0 0 0 0 0 
0 0 0 0 0 0 0 0 0 
0 0 0 0 0 0 0 0 0 
0 0 0 0 0 0 0 0 0 
0 0 0 0 0 0 0 0 0 
0 0 0 0 0 0 0 0 0 
0 0 0 0 0 0 0 0 0 
0 0 0 0 0 0 0 0 0 
0 0 0 0 0 0 0 0 0 
0 0 0 0 0 0 0 0 0 
0 0 0 0 0 0 0 0 0 
0 0 0 0 0 0 0 0 0 
0 0 0 0 0 0 0 0 0 
0 0 0 0 0 0 0 0 0 
0 0 0 0 0 0 0 0 0 
0 0 0 0 0 0 0 0 0 
0 0 0 0 0 0 0 0 0 
0 0 0 0 0 0 0 0 0 
0 0 0 0 0 0 0 0 0 
0 0 0 0 0 0 0 0 0 
0 0 0 0 0 0 0 0 0 
0 0 0 0 0 0 0 0 0 
0 0 0 0 0 0 0 0 0 
0 0 0 0 0 0 0 0 0 
0 0 0 0 0 0 0 0 0 
0 0 0 0 0 0 0 0 0 
0 0 0 0 0 0 0 0 0 
0 0 0 0 0 0 0 0 0 
0 0 0 0 0 0 0 0 0 
0 0 0 0 0 0 0 0 0 
0 0 0 0 0 0 0 0 0 
0 0 0 0 0 0 0 0 0 
0 0 0 0 0 0 0 0 0 
0 0 0 0 0 0 0 0 0 
0 0 0 0 0 0 0 0 0 
0 0 0 0 0 0 0 0 0 
0 0 0 0 0 0 0 0 0 
0 0 0 0 0 0 0 0 0 
0 0 0 0 0 0 0 0 0 
0 0 0 0 0 0 0 0 0 
0 0 0 0 0 0 0 0 0 
0 0 0 0 0 0 0 0 0 
0 0 0 0 0 0 0 0 0 
0 0 0 0 0 0 0 0 0 
0 0 0 0 0 0 0 0 0 
0 0 0 0 0 0 0 0 0 
0 0 0 0 0 0 0 0 0 
0 0 0 0 0 0 0 0 0 
0 0 0 0 0 0 0 0 0 
0 0 0 0 0 0 0 0 0 
0 0 0 0 0 0 0 0 0 
0 0 0 0 0 0 0 0 0 
0 0 0 0 0 0 0 0 0 
0 0 0 0 0 0 0 0 0 
0 0 0 0 0 0 0 0 0 
0 0 0 0 0 0 0 0 0 
0 0 0 0 0 0 0 0 0 
0 0 0 0 0 0 0 0 0 
0 0 0 0 0 0 0 0 0 
0 0 0 0 0 0 0 0 0 
0 0 0 0 0 0 0 0 0 
0 0 0 0 0 0 0 0 0 
0 0 0 0 0 0 0 0 0 
0 0 0 0 0 0 0 0 0 
0 0 0 0 0 0 0 0 0 
0 0 0 0 0 0 0 0 0 
0 0 0 0 0 0 0 0 0 
0 0 0 0 0 0 0 0 0 
0 0 0 0 0 0 0 0 0 
0 0 0 0 0 0 0 0 0 
0 0 0 0 0 0 0 0 0 
0 0 0 0 0 0 0 0 0 
0 0 0 0 0 0 0 0 0 
0 0 0 0 0 0 0 0 0 
0 0 0 0 0 0 0 0 0 
0 0 0 0 0 0 0 0 0 
0 0 0 0 0 0 0 0 0 
0 0 0 0 0 0 0 0 0 
0 0 0 0 0 0 0 0 0 
0 0 0 0 0 0 0 0 0 
0 0 0 0 0 0 0 0 0 
0 0 0 0 0 0 0 0 0 
0 0 0 0 0 0 0 0 0 
0 0 0 0 0 0 0 0 0 
0 0 0 0 0 0 0 0 0 
0 0 0 0 0 0 0 0 0 
0 0 0 0 0 0 0 0 0 
0 0 0 0 0 0 0 0 0 
0 0 0 0 0 0 0 0 0 
0 0 0 0 0 0 0 0 0 
0 0 0 0 0 0 0 0 0 
0 0 0 0 0 0 0 0 0 
0 0 0 0 0 0 0 0 0 
0 0 0 0 0 0 0 0 0 
0 0 0 0 0 0 0 0 0 
0 0 0 0 0 0 0 0 0 
0 0 0 0 0 0 0 0 0 
0 0 0 0 0 0 0 0 0 
0 0 0 0 0 0 0 0 0 
0 0 0 0 0 0 0 0 0 
0 0 0 0 0 0 0 0 0 
0 0 0 0 0 0 0 0 0 
0 0 0 0 0 0 0 0 0 
0 0 0 0 0 0 0 0 0 
0 0 0 0 0 0 0 0 0 
0 0 0 0 0 0 0 0 0 
0 0 0 0 0 0 0 0 0 
0 0 0 0 0 0 0 0 0 
0 0 0 0 0 0 0 0 0 
0 0 0 0 0 0 0 0 0 
0 0 0 0 0 0 0 0 0 
0 0 0 0 0 0 0 0 0 
0 0 0 0 0 0 0 0 0 
0 0 0 0 0 0 0 0 0 
0 0 0 0 0 0 0 0 0 
0 0 0 0 0 0 0 0 0 
0 0 0 0 0 0 0 0 0 
0 0 0 0 0 0 0 0 0 
0 0 0 0 0 0 0 0 0 
0 0 0 0 0 0 0 0 0 
0 0 0 0 0 0 0 0 0 
0 0 0 0 0 0 0 0 0 
0 0 0 0 0 0 0 0 0 
0 0 0 0 0 0 0 0 0 
0 0 0 0 0 0 0 0 0 
0 0 0 0 0 0 0 0 0 
0 0 0 0 0 0 0 0 0 
0 0 0 0 0 0 0 0 0 
0 0 0 0 0 0 0 0 0 
0 0 0 0 0 0 0 0 0 
0 0 0 0 0 0 0 0 0 
0 0 0 0 0 0 0 0 0 
0 0 0 0 0 0 0 0 0 
0 0 0 0 0 0 0 0 0 
0 0 0 0 0 0 0 0 0 
0 0 0 0 0 0 0 0 0 
0 0 0 0 0 0 0 0 0 
0 0 0 0 0 0 0 0 0 
0 0 0 0 0 0 0 0 0 
0 0 0 0 0 0 0 0 0 
0 0 0 0 0 0 0 0 0 
0 0 0 0 0 0 0 0 0 
0 0 0 0 0 0 0 0 0 
0 0 0 0 0 0 0 0 0 
0 0 0 0 0 0 0 0 0 
0 0 0 0 0 0 0 0 0 
0 0 0 0 0 0 0 0 0 
0 0 0 0 0 0 0 0 0 
0 0 0 0 0 0 0 0 0 
0 0 0 0 0 0 0 0 0 
0 0 0 0 0 0 0 0 0 
0 0 0 0 0 0 0 0 0 
0 0 0 0 0 0 0 0 0 
0 0 0 0 0 0 0 0 0 
0 0 0 0 0 0 0 0 0 
0 0 0 0 0 0 0 0 0 
0 0 0 0 0 0 0 0 0 
0 0 0 0 0 0 0 0 0 
0 0 0 0 0 0 0 0 0 
0 0 0 0 0 0 0 0 0 
0 0 0 0 0 0 0 0 0 
0 0 0 0 0 0 0 0 0 
0 0 0 0 0 0 0 0 0 
0 0 0 0 0 0 0 0 0 
0 0 0 0 0 0 0 0 0 
0 0 0 0 0 0 0 0 0 
0 0 0 0 0 0 0 0 0 
0 0 0 0 0 0 0 0 0 
0 0 0 0 0 0 0 0 0 
0 0 0 0 0 0 0 0 0 
0 0 0 0 0 0 0 0 0 
0 0 0 0 0 0 0 0 0 
0 0 0 0 0 0 0 0 0 
0 0 0 0 0 0 0 0 0 
0 0 0 0 0 0 0 0 0 
0 0 0 0 0 0 0 0 0 
0 0 0 0 0 0 0 0 0 
0 0 0 0 0 0 0 0 0 
0 0 0 0 0 0 0 0 0 
0 0 0 0 0 0 0 0 0 
0 0 0 0 0 0 0 0 0 
0 0 0 0 0 0 0 0 0 
0 0 0 0 0 0 0 0 0 
0 0 0 0 0 0 0 0 0 
0 0 0 0 0 0 0 0 0 
0 0 0 0 0 0 0 0 0 
0 0 0 0 0 0 0 0 0 
0 0 0 0 0 0 0 0 0 
0 0 0 0 0 0 0 0 0 
0 0 0 0 0 0 0 0 0 
0 0 0 0 0 0 0 0 0 
0 0 0 0 0 0 0 0 0 
0 0 0 0 0 0 0 0 0 
0 0 0 0 0 0 0 0 0 
0 0 0 0 0 0 0 0 0 
0 0 0 0 0 0 0 0 0 
0 0 0 0 0 0 0 0 0 
0 0 0 0 0 0 0 0 0 
0 0 0 0 0 0 0 0 0 
0 0 0 0 0 0 0 0 0 
0 0 0 0 0 0 0 0 0 
0 0 0 0 0 0 0 0 0 
0 0 0 0 0 0 0 0 0 
0 0 0 
v 3 1000 double
0.13030035458 0.25138080136 0.010948922244 -0.13825378101 0.44769843718 0.039581964105 -0.17663309541 0.10679943766 -0.10717825294 
0.010369833782 0.0057572595268 0.01238714431 -0.25309021057 0.43229908405 0.0052291300803 0.0099196822753 0.00068676965825 0.010083929906 
0.0096487167107 0.0040552027841 0.012615239438 0.0026990032552 0.013967237905 0.0096318563815 -0.0089792723941 0.01692342802 -0.028442484439 
-0.00013234278736 0.011492569755 -0.0018430500181 0.007236852349 0.0042429893514 0.0079266984796 0.010329888683 0.0057775649545 0.02024216925 
0.0059931441408 0.010381124167 0.005783198666 -0.0033431944004 0.010050778875 -0.012185394965 -0.0090099029242 0.0097898909333 -0.023174087448 
-0.0064913164072 0.010889651126 -0.0129340851 -0.011810565739 0.0078907426773 -0.00019540252911 -0.17684208568 -0.096841793411 -0.012579938465 
-0.19008264402 0.089767752911 -0.022517288384 0.0065968529665 0.0035653158346 0.0014356020261 0.0038447898951 0.0045369395533 0.0074670482065 
0.004045611906 0.0069424836275 0.0083238061983 0.010855527341 0.0041116495645 0.014236899467 0.0048268306468 0.0061379807365 0.024592022575 
0.00044591061671 0.010917859809 0.0025656258316 -0.0029541028141 0.010910837152 -0.010084560031 -0.0085963060268 0.011570376114 -0.0089339266291 
-0.012207438628 0.0068832884283 -0.0052341581275 -0.010973380867 -0.0035934739819 0.0008466752747 -0.0030348262862 -0.010414338954 0.01366359089 
-0.011805639903 0.017945388592 -0.0083251108218 -0.34993695323 -0.015073064645 -0.051222259684 0.00554341845 0.0051675093187 0.0066861096897 
0.0016001859416 0.0068745875917 0.014181353327 -0.0013126227591 0.0086695860981 0.012181851255 -0.0032622449639 0.016271182383 0.00078504825651 
-0.002949425985 0.0094810674504 -0.00039272039099 -0.011447096296 0.0044559325362 -0.0014608485363 -0.012354990098 0.0032175504096 0.006142527142 
-0.0097814400972 -0.0038597186588 0.0002731554824 -0.011439650114 0.011197989378 0.0050116089942 -0.0037105279482 0.0022269356236 0.0093549565757 
-0.0094608938929 0.0044858854005 0.0080593075704 0.00056573547361 0.017690840502 0.0085948432887 -0.0011342667438 0.0035465463775 0.0061377826859 
-0.0034037371303 0.0059972929032 0.008761982291 -0.0089437745529 0.0019731726699 0.014056936424 -0.01486271918 -0.0012608176285 0.0076095343511 
-0.014378331688 0.0023671974345 0.00082064202296 0.0013320550811 0.0074567014407 0.010717538067 0.0016443590553 0.0032882851195 0.0072672477376 
-0.01639667446 -0.0036979160739 0.015293505586 -0.021341088799 0.0079796439811 0.0035412151089 -0.0050053529012 -0.0017593421645 0.022302283058 
-0.0060419448016 -3.9251503193e-05 0.0053782989565 -0.010371232836 0.0041990608024 -0.0019870528959 -0.014983200087 -0.011601612726 0.019446794637 
0.01199640887 0.0039393907698 0.014249677016 0.015925602439 0.0071157709125 0.016109181978 0.0069991326347 0.0039833453204 0.0119931694 
0.010423517086 0.0071266131986 0.012094896175 0.0028897547421 0.012843613627 0.0009117134776 -0.001366375618 0.012340350085 -0.022547617619 
0.0038923618796 0.0042016011101 0.0071611595377 0.0047173263426 0.0047508480351 0.011410001378 0.0023937198961 0.0098787725762 0.0056422454669 
0.00030323442919 0.0076881014679 -0.015170471036 -0.0025815571 0.010643591463 -0.011469652272 -0.01100516272 0.007437330892 -0.01020051289 
-0.010528048342 0.0039666173944 -0.018929195881 -0.012330103877 0.010301979859 -0.0022113567282 -0.23943611515 0.0066550306534 -0.047992443849 
0.00386187666 0.0039176820051 0.0024979238169 0.00094781138847 0.0058136545774 0.0092445656421 0.00276953684 0.0054908244872 0.0083384117333 
-0.01744737682 0.0058568139886 -0.010720284287 -0.010753017947 0.001712305125 -0.0037840187993 -0.015045493122 0.0028387415311 -0.0050915227452 
-0.019654741418 0.0076142282651 -0.0058979867321 -0.018299277026 -0.0017704962901 0.00095727337459 -0.012791607064 -0.0036635023258 0.0042941002005 
0.011670214184 0.018414498202 0.011539624227 -0.31371428765 -0.17015011154 -0.0082276082767 0.0057922599524 0.0065798681439 -0.0034571499721 
-0.0022627559768 0.0058834008159 0.014071319853 -0.0015504469972 0.005240506629 0.012857043159 -5.6343939277e-05 0.0047739875791 0.0099210331171 
0.0012515170767 0.0085098027055 0.012784013402 -0.0053460936469 0.0066934193484 -0.0029491966944 -0.010679828006 0.0060329857018 0.0032658795292 
-0.012966595434 0.0038086231004 0.0041685950288 -0.012662775964 -0.011708555801 0.0096007090281 -0.016670635978 -0.0073941683106 0.0057344284768 
-0.010020635396 0.0053836390585 0.00085465579861 -0.029744222577 -0.0020911033063 0.012175659587 -3.1612191921e-05 0.0056343234567 0.0085374247129 
-0.002444767838 0.0056532331425 0.014477068275 -0.0018887606301 0.0042446787603 0.012235378864 -0.0021084539801 0.0041684615486 0.011773774018 
-0.0009670449873 0.0041868267551 0.0089808714981 -0.0050410780358 0.0036193529203 0.010925710582 -0.0061835649662 0.016053778833 0.0057796116109 
0.00059580274354 0.006641917049 0.0075277486452 -0.0010686036508 0.0021860273314 0.0036066499862 -0.002440153569 0.0020792015738 0.0068504888795 
-0.005338902277 -0.0011059767003 0.01173172111 -0.0089567425971 -0.0035389663425 0.014556029403 -0.0078477452195 -0.0074773756875 0.011584920169 
-0.017015799558 0.0038715983342 0.0025450141157 -0.0074907112981 0.0064797838434 0.011975468142 -0.0015726334856 0.0045703937362 0.012346377733 
0.0005893539879 0.00090176827571 0.0061461839447 -0.0086191183196 0.0071623499252 0.0066541027484 0.0032473022966 0.00097630795062 0.017967434818 
-0.0015955989516 0.00078835002072 0.0079921445479 -0.0057571634592 0.0040799345803 0.0057914546599 -0.0080607848245 -0.00046311063858 0.011582678804 
-0.012806143744 -0.0018175976446 0.02808814056 0.012735626803 0.0048277081038 0.014242824937 0.0094189889918 0.0059029171285 0.015516900734 
0.013360771378 0.0020550714567 0.0067321219871 0.014224144999 0.019316783885 -0.0067503828057 -0.022503660782 0.0058248436515 -0.024233630025 
-0.001877776479 0.008125111495 0.0093292842969 0.0025575750131 0.0041466675724 0.011344030598 0.0010739767478 0.014090637959 -0.011811770198 
0.0075237106012 0.042117239472 -0.031756965615 0.00021267300164 -0.011248076281 -0.017939964636 -0.019822478174 0.0063895511928 -0.013753816421 
-0.048064627911 -0.025834213545 -0.012672336951 -0.0034243585114 0.0042339618979 0.0066249587837 0.00078538907557 0.0065917411822 0.0093073830677 
0.00082993648982 0.0061225653196 0.015969267903 -0.00099285516406 0.003447545278 0.013919594789 0.0026138654449 0.0035901849612 0.0088477451688 
-0.0086015962279 0.010997600306 -0.0094683251018 -0.0083794386205 0.0097387040805 -0.011982878236 -0.014623633315 -0.00061526421421 -0.012226230098 
-0.0085895307125 -0.0054208093842 -0.0017074338671 -0.026219243616 0.001951456044 -0.0059578027294 -0.011767007693 -0.017856463029 0.0049870637397 
0.42839034355 -0.17667179623 0.34694728127 -0.0026047427091 0.0010454731806 0.0083915885062 -0.0015221766166 0.0042824484948 0.014730141998 
-0.0048178083933 0.0042535404928 0.010259930143 -0.0033860536436 0.0081996176393 0.0083287080624 -0.0051354575259 0.0062848055338 -0.00027860586111 
-0.0030006417875 0.0096609292661 -0.0054156482381 -0.014806183863 -0.004170474943 0.010468044107 -0.0075811390065 -0.025989194291 -0.0067486619029 
-0.0041750968076 -0.0025441646128 -0.0073467880147 -0.011276958837 -0.005688494601 0.0088078081148 -0.0045919706413 0.0017274050446 0.015458282568 