# vtk DataFile Version 5.1
Generated by LIGGGHTS
ASCII
DATASET POLYDATA
POINTS 1000 float
-0.00186675 -0.0167528 0.00149862 0.000982015 -0.0165631 0.00149677 0.00586502 -0.0160243 0.00151649 
-0.0153084 -0.014124 0.00149825 -0.0126044 -0.0131959 0.0014961 -0.000605204 -0.0141919 0.00150028 
0.00208653 -0.0132438 0.00150603 0.00493514 -0.0133277 0.00170623 0.00773367 -0.0138774 0.00154233 
0.0164873 -0.0126336 0.00187686 0.0219128 -0.0128981 0.00148582 -0.0174661 -0.0104163 0.00150175 
-0.0147605 -0.0113264 0.00153837 -0.00635789 -0.0116004 0.00149636 0.00239445 -0.0104227 0.00165319 
0.00525428 -0.0104719 0.00149926 0.00811834 -0.0104144 0.00152038 0.0109677 -0.0103534 0.00148396 
0.0135736 -0.0115154 0.00151725 0.0192284 -0.0119168 0.00157122 0.0228677 -0.0103733 0.00241674 
-0.0202028 -0.00962953 0.00170676 -0.0181571 -0.00764704 0.00151629 -0.00641391 -0.00758238 0.00147766 
-0.00456463 -0.00955318 0.0023572 -0.000407019 -0.0098792 0.0015225 0.00381853 -0.00797656 0.00159976 
0.00666267 -0.00798158 0.00164026 0.00950516 -0.00789535 0.00150434 0.0123133 -0.00790369 0.002066 
0.0149079 -0.00900642 0.00150998 0.0202512 -0.00929685 0.00195822 0.0253326 -0.00905407 0.00184702 
0.0281335 -0.00945766 0.00149445 0.0321804 -0.00789014 0.00156589 -0.00361756 -0.0069861 0.00151784 
-0.000812591 -0.00711408 0.00207229 0.00799134 -0.00546042 0.0015256 0.012904 -0.00516913 0.00148757 
0.0155332 -0.00623683 0.00151134 0.0180914 -0.00749153 0.00148503 0.0236664 -0.00674478 0.0018284 
0.0270547 -0.00680263 0.00151495 0.0312107 -0.00520827 0.00168358 -0.000929923 -0.00268312 0.00147515 
0.0062676 -0.00317764 0.00150745 0.0111108 -0.0029819 0.00181525 0.0174791 -0.00416322 0.0014956 
0.0201694 -0.0037608 0.00229453 0.022907 -0.00401143 0.0015861 0.0256887 -0.0043473 0.00206475 
0.0284954 -0.00433562 0.00154097 -0.004965 -0.000416918 0.00207376 -0.00214119 -0.000271196 0.00240485 
0.00401189 -0.00141867 0.00152133 0.0066547 -0.000347294 0.00150012 0.0139693 -0.000150274 0.00198788 
0.0174933 -0.00131809 0.00146997 0.0225689 -0.00117591 0.00161274 0.0347426 -0.00196109 0.00149626 
0.00333734 -0.0154964 0.00270566 0.00554447 -0.0173045 0.00405102 -0.0133274 -0.0154929 0.00302563 
-0.0142068 -0.0129073 0.00384541 0.00213608 -0.0135046 0.00435524 0.00628594 -0.01455 0.00391847 
0.00905557 -0.0128698 0.00385067 0.0145078 -0.0133642 0.00379452 0.000712279 -0.0110812 0.00385138 
0.00394545 -0.0113531 0.00386033 0.00698877 -0.0110315 0.00454681 0.0118377 -0.0123838 0.00359474 
0.0100474 -0.0102155 0.00417452 0.0173501 -0.0100065 0.002603 0.0181388 -0.0122498 0.0041772 
0.021232 -0.0119958 0.0040968 0.0243567 -0.0118173 0.004391 0.030649 -0.00999706 0.00273641 
-0.00549857 -0.00755692 0.00417944 -0.00270374 -0.00812473 0.00396117 0.00254358 -0.00887009 0.00403833 
0.0134939 -0.0090925 0.00437271 0.0159868 -0.00780822 0.00386206 0.0188137 -0.00809916 0.00416174 
0.0214148 -0.00918473 0.00456018 0.0242539 -0.00896705 0.00448537 0.0270749 -0.00903445 0.00410842 
-0.00748059 -0.00568841 0.00329852 -0.000390841 -0.00675911 0.00488936 -0.0024448 -0.00531067 0.00352786 
0.00277636 -0.00607719 0.00344497 0.00588532 -0.00688269 0.00415966 0.0135709 -0.00626543 0.00404328 
0.0191742 -0.00526959 0.0045008 0.0210772 -0.00680204 0.00301859 0.0243179 -0.00611559 0.00454135 
0.0271668 -0.00618573 0.00429421 0.0296104 -0.00734086 0.00268512 0.0319683 -0.0065531 0.00408146 
-0.00593837 -0.00340471 0.00405817 -0.0034887 -0.00277356 0.00272993 -0.00111473 -0.00253224 0.0043008 
0.00031329 -0.00468454 0.00307176 0.00171025 -0.00273534 0.00460903 0.00415869 -0.00356388 0.00339883 
0.00859926 -0.00317232 0.00313095 0.0131782 -0.00343444 0.00372152 0.0158026 -0.00451491 0.0037802 
0.0180145 -0.00272133 0.00388966 0.0211928 -0.0032977 0.00491794 0.0239522 -0.00331649 0.00413649 
0.0267239 -0.00265933 0.00411157 0.0296792 -0.00484518 0.0040755 0.0305209 -0.00257848 0.00253091 
-0.00752958 -0.00157239 0.00255495 0.000625617 -0.000747575 0.00288292 0.0062783 -0.00172909 0.00396164 
0.0132119 -0.000212612 0.00474695 0.0165412 -0.000252616 0.00391058 0.0199868 -0.000965999 0.00280778 
0.0286427 -0.000656832 0.00346897 0.0324137 -0.00118511 0.00416307 0.00402227 -0.0153448 0.00546651 
0.0052464 -0.0128098 0.00593175 0.00805812 -0.0142294 0.00614509 0.0108402 -0.0136145 0.00596805 
-0.00297874 -0.0103648 0.00733636 -0.000394856 -0.0122445 0.00621147 0.00230926 -0.0113301 0.00619678 
0.0105325 -0.0109392 0.00687636 0.0132704 -0.0121235 0.00604834 0.017392 -0.0123588 0.00691981 
0.0196557 -0.0108042 0.00613977 0.0243223 -0.0104527 0.006906 -0.00522937 -0.00761794 0.00702627 
-0.000853146 -0.00948717 0.00563707 -0.00237485 -0.00758531 0.00711258 0.00161859 -0.00862606 0.00674804 
0.00497569 -0.00924109 0.00548642 0.00890407 -0.00783311 0.00528502 0.0115174 -0.00832922 0.00628892 
0.0149906 -0.00843953 0.00670687 0.0170428 -0.00994205 0.00543216 0.0217508 -0.00932849 0.00739726 
0.0244366 -0.00758565 0.00698471 -0.0044363 -0.00530304 0.00556462 0.00158895 -0.00577663 0.00670776 
0.00420552 -0.00518338 0.00573888 0.00647832 -0.00645048 0.006906 0.00923954 -0.00604511 0.00749587 
0.0114568 -0.0055033 0.00580151 0.0216791 -0.00601128 0.00567233 0.0272083 -0.00682918 0.00707654 
-0.00842038 -0.00435429 0.00562239 -0.00606236 -0.0033846 0.00691628 -0.00367378 -0.00256059 0.00557031 
-0.00173993 -0.00457933 0.00618145 0.00318432 -0.00285931 0.00704975 0.00682882 -0.00432466 0.00504303 
0.00943143 -0.00347761 0.00585471 0.0124891 -0.0029114 0.00641931 0.0145729 -0.00485939 0.00632229 
0.0191415 -0.00367746 0.00687896 0.0232208 -0.00392048 0.00683128 0.0259393 -0.00444388 0.00619336 
0.0287313 -0.00440847 0.00673544 -0.0102266 -0.000454572 0.00682055 -0.00769309 -0.00160896 0.00540089 
3.67342e-05 -0.00246355 0.00691192 0.00655133 -0.000256 0.00637806 0.0151114 -0.00220982 0.00542392 
0.0176598 -0.00130331 0.00633482 0.0225446 -0.00119912 0.0062878 0.0271305 -0.00210274 0.00729007 
0.030053 -0.0023094 0.00532441 0.00353128 -0.0129484 0.00820731 0.00607219 -0.0140444 0.00888398 
0.00883387 -0.0147655 0.00885118 0.0110712 -0.0129906 0.00875636 0.00297085 -0.0101966 0.00872747 
0.00544012 -0.0113498 0.0096015 0.00737675 -0.0118678 0.00757927 0.0117721 -0.0102615 0.00935136 
0.0166442 -0.0107793 0.00916771 0.0210515 -0.0119379 0.00834748 -0.00448967 -0.00905792 0.00937807 
5.4934e-05 -0.00901775 0.0091089 0.00607631 -0.00882471 0.00844129 0.0095535 -0.00873383 0.00835116 
0.01301 -0.00778365 0.00865168 0.0157588 -0.0078758 0.00939815 0.0192758 -0.00972119 0.00875099 
-0.00729299 -0.00579811 0.00780853 -0.00315156 -0.00654931 0.00965273 -0.000632767 -0.00580624 0.00850359 
0.00385694 -0.00717672 0.00774651 0.00643216 -0.00589702 0.00968363 0.0198824 -0.00718646 0.00756465 
0.0224071 -0.00615636 0.00842008 -0.00965033 -0.00497151 0.00918853 -0.0086657 -0.00263575 0.0078742 
-0.00711469 -0.00388346 0.00992311 -0.00380435 -0.00399228 0.00855496 -0.00058601 -0.00280585 0.00967392 
0.00355422 -0.00351682 0.00980841 0.00739634 -0.00391638 0.00782386 0.0101269 -0.00357368 0.00862259 
0.0124856 -0.00261802 0.00996114 0.0125957 -0.00498226 0.00837333 0.0165439 -0.00329115 0.00804668 
0.0187282 -0.00265699 0.00976939 0.0255712 -0.00380739 0.00896676 -0.0104612 -0.0012086 0.00956543 
-0.00516731 -0.00147786 0.00883703 -0.00246686 -0.0015509 0.00794171 0.00104177 -0.000614031 0.00884817 
0.00547845 -0.00190481 0.00844774 0.0143095 -0.00150204 0.00807438 0.0168648 -0.000632854 0.0090039 
0.0201146 -0.00114445 0.00778915 0.0245969 -0.00122128 0.00827446 0.0298453 -0.00219953 0.00817161 
0.00415297 -0.0135225 0.0109348 0.00817391 -0.0106077 0.0100103 0.014314 -0.0100029 0.0106344 
0.000772843 -0.00936841 0.0118489 0.00240832 -0.00777644 0.0101307 0.00775489 -0.00799768 0.011088 
0.010827 -0.00796361 0.0107767 0.013173 -0.0080702 0.0124028 0.0177862 -0.00900062 0.011073 
0.0217312 -0.00988243 0.0101969 -0.000719678 -0.00706907 0.0110567 0.00214443 -0.00576588 0.0121376 
0.00919242 -0.00564675 0.0103327 0.0140194 -0.00598986 0.0106383 0.0165939 -0.00651408 0.0117667 
0.0190016 -0.0065618 0.0102145 0.0230882 -0.00746416 0.0108661 -0.00312755 -0.00423431 0.0113217 
-0.000363455 -0.00440532 0.0120232 0.00487912 -0.00497778 0.0118754 0.00730229 -0.00361175 0.011138 
0.0101086 -0.00318288 0.0114465 0.0173838 -0.00378919 0.0120171 0.015318 -0.00251242 0.0105194 
0.0207409 -0.00482764 0.011676 0.0233844 -0.00463484 0.0106112 0.00156292 -0.00236304 0.0114956 
0.00495897 -0.0021402 0.0118816 0.00742515 -0.000774325 0.0115318 0.0215375 -0.00247598 0.0102692 
0.00994894 -0.000229239 0.0135614 0.0122241 -0.00171125 0.0126646 -0.0425849 -0.000997496 0.00511357 
-0.00953443 0.000173883 0.00152558 -0.00758164 0.0020768 0.00236985 -0.00358712 0.00201775 0.00149442 
0.0163874 0.00130827 0.00152823 0.0215027 0.00139158 0.00226335 0.0327847 0.000113221 0.00164437 
0.0355572 0.000769499 0.00169287 -0.0101549 0.00295401 0.00148724 -0.00565335 0.00399278 0.0014853 
0.0160377 0.00405278 0.00224597 0.0249145 0.0031251 0.00149512 0.0273361 0.00427386 0.00247178 
0.0336107 0.00276758 0.00231098 -0.011982 0.00730413 0.00198845 -0.00637682 0.0067771 0.00154226 
0.000319654 0.00604529 0.0015226 0.0113303 0.00691201 0.00149538 0.0182433 0.00570242 0.001503 
0.0281031 0.00701038 0.00224224 0.0308543 0.00625384 0.00229543 0.0344974 0.00542403 0.00174006 
-0.00375125 0.0099365 0.00221844 0.00114283 0.00877484 0.00152536 0.00888636 0.00849161 0.00149603 
0.0114047 0.00976022 0.00158406 0.0264173 0.00995419 0.00157519 0.0331273 0.00792664 0.00189253 
-0.0120647 0.010161 0.00204306 -0.00988804 0.0119426 0.00149875 -0.0071559 0.0113986 0.00217235 
-0.00106273 0.0105879 0.00146839 0.00349337 0.0102342 0.00220555 0.006199 0.0109812 0.00155556 
0.00904496 0.0113627 0.00160785 0.0139294 0.0110347 0.00190958 0.0191813 0.0118523 0.00196881 
0.0240241 0.0114367 0.00198924 0.0292503 0.0103016 0.00146069 0.0310719 0.0124241 0.00187477 
-0.0115528 0.0141416 0.00226555 -0.00884105 0.014605 0.00149675 0.00416672 0.0129622 0.00186199 
[...]
POINT_DATA 1000
FIELD FieldData 7
id 1 1000 int
10 41 49 23 83 24 266 25 280 
297 3 124 29 18 263 22 12 290 
285 53 27 197 79 302 36 282 268 
251 277 295 37 48 21 9 141 17 
2 16 50 30 46 15 39 247 43 
104 38 33 7 19 274 309 191 107 
235 6 378 138 164 248 254 1 40 
51 252 52 262 504 298 256 535 301 
520 56 296 272 216 32 270 58 306 
258 13 45 294 264 260 259 253 28 
287 278 31 273 4 281 305 34 65 
304 205 54 47 303 308 44 8 5 
42 289 261 527 292 279 291 11 35 
434 67 14 554 689 26 267 551 558 
761 509 531 555 544 543 501 533 549 
524 525 508 548 552 526 518 257 521 
503 293 534 283 528 532 286 284 767 
507 506 276 255 510 265 275 300 269 
556 307 530 788 804 529 536 158 299 
288 547 807 511 515 810 773 766 769 
787 789 774 782 751 768 765 776 755 
516 797 546 502 757 522 540 542 538 
512 784 519 794 523 505 764 545 539 
557 517 513 790 752 792 806 541 648 
537 271 550 514 809 801 775 805 802 
781 796 808 777 795 786 803 778 798 
553 758 791 800 763 759 753 762 783 
793 780 754 772 785 779 756 799 770 
57 760 351 193 339 102 55 186 136 
160 357 199 161 131 242 218 363 89 
429 112 331 384 425 234 237 69 63 
206 130 433 455 227 229 118 243 123 
116 211 238 157 149 169 223 175 204 
84 62 155 203 165 80 178 194 183 
472 154 249 179 222 90 127 310 120 
87 332 208 117 226 86 182 110 64 
430 105 159 407 404 75 231 399 174 
484 367 740 184 77 60 103 195 219 
168 98 236 360 151 121 177 143 239 
156 487 431 392 496 190 139 749 401 
111 114 233 91 864 20 416 397 323 
113 389 482 72 66 685 393 214 499 
209 68 344 413 202 330 328 380 724 
96 232 359 423 94 212 314 445 119 
460 419 313 101 85 122 73 213 189 
333 147 99 92 317 128 210 246 145 
220 241 180 352 448 142 185 78 88 
198 150 61 100 408 166 428 415 490 
93 311 163 240 462 492 570 346 427 
471 387 146 59 221 115 201 385 465 
483 394 391 82 126 245 196 109 106 
412 495 379 347 435 140 436 167 97 
364 376 366 315 464 491 188 341 451 
437 422 463 418 402 390 447 349 170 
162 225 176 439 224 153 334 76 388 
81 148 459 125 603 329 640 565 370 
320 95 134 192 207 200 679 709 457 
369 675 132 477 383 596 688 698 449 
486 468 382 129 655 642 632 678 732 
365 673 900 666 629 452 450 454 338 
362 730 680 563 335 398 727 912 438 
173 172 135 355 250 358 625 475 626 
707 498 152 70 466 470 396 456 561 
343 476 340 350 692 473 215 405 181 
342 622 598 494 74 480 137 244 368 
373 461 646 411 377 714 337 420 348 
230 371 386 674 409 406 414 481 474 
594 395 336 444 741 467 319 575 400 
722 620 322 728 590 560 171 581 702 
479 318 485 750 618 432 356 668 500 
615 592 616 71 564 623 442 879 898 
228 426 381 372 638 458 922 326 353 
735 325 571 567 613 577 945 663 652 
441 573 572 876 974 601 695 469 927 
981 992 967 862 703 417 440 747 645 
915 701 566 847 890 936 744 579 670 
569 593 738 930 589 979 316 656 903 
611 591 726 664 607 453 493 619 718 
653 410 658 609 446 870 606 354 217 
108 403 489 682 654 745 650 955 715 
562 361 421 497 488 617 599 610 624 
700 424 710 723 568 634 748 321 977 
614 327 312 578 828 660 733 739 585 
588 743 996 933 375 672 691 697 816 
586 600 587 621 595 665 597 576 643 
651 644 604 559 818 868 712 716 602 
628 639 662 720 988 734 608 999 708 
925 746 989 631 686 681 848 690 635 
811 696 641 729 693 699 860 853 906 
919 612 574 932 909 704 877 929 958 
771 959 896 649 717 961 886 921 984 
971 835 647 633 711 659 731 817 869 
840 837 942 964 882 814 627 684 843 
705 582 935 871 895 856 855 669 637 
924 812 917 953 657 859 683 584 374 
671 345 736 630 914 580 842 954 823 
867 719 742 324 908 815 824 897 902 
976 583 957 713 938 949 478 881 963 
836 721 948 968 826 905 844 694 676 
636 667 834 737 970 857 918 838 725 
845 993 852 889 893 880 944 822 947 
987 865 965 875 687 885 854 829 819 
661 940 952 980 986 827 830 858 978 
874 878 962 821 913 133 861 946 850 
939 928 907 841 997 825 916 941 833 
901 926 144 891 931 911 937 985 990 
975 849 998 910 813 863 943 888 873 
883 677 866 951 872 969 983 920 706 
605 950 851 846 934 894 1000 960 884 
982 995 956 966 904 973 923 994 831 
899 972 887 820 832 187 991 892 839 
443 
type 1 1000 int
1 1 1 1 1 1 1 1 1 
1 1 1 1 1 1 1 1 1 
1 1 1 1 1 1 1 1 1 
1 1 1 1 1 1 1 1 1 
1 1 1 1 1 1 1 1 1 
1 1 1 1 1 1 1 1 1 
1 1 1 1 1 1 1 1 1 
1 1 1 1 1 1 1 1 1 
1 1 1 1 1 1 1 1 1 
1 1 1 1 1 1 1 1 1 
1 1 1 1 1 1 1 1 1 
1 1 1 1 1 1 1 1 1 
1 1 1 1 1 1 1 1 1 
1 1 1 1 1 1 1 1 1 
1 1 1 1 1 1 1 1 1 
1 1 1 1 1 1 1 1 1 
1 1 1 1 1 1 1 1 1 
1 1 1 1 1 1 1 1 1 
1 1 1 1 1 1 1 1 1 
1 1 1 1 1 1 1 1 1 
1 1 1 1 1 1 1 1 1 
1 1 1 1 1 1 1 1 1 
1 1 1 1 1 1 1 1 1 
1 1 1 1 1 1 1 1 1 
1 1 1 1 1 1 1 1 1 
1 1 1 1 1 1 1 1 1 
1 1 1 1 1 1 1 1 1 
1 1 1 1 1 1 1 1 1 
1 1 1 1 1 1 1 1 1 
1 1 1 1 1 1 1 1 1 
1 1 1 1 1 1 1 1 1 
1 1 1 1 1 1 1 1 1 
1 1 1 1 1 1 1 1 1 
1 1 1 1 1 1 1 1 1 
1 1 1 1 1 1 1 1 1 
1 1 1 1 1 1 1 1 1 
1 1 1 1 1 1 1 1 1 
1 1 1 1 1 1 1 1 1 
1 1 1 1 1 1 1 1 1 
1 1 1 1 1 1 1 1 1 
1 1 1 1 1 1 1 1 1 
1 1 1 1 1 1 1 1 1 
1 1 1 1 1 1 1 1 1 
1 1 1 1 1 1 1 1 1 
1 1 1 1 1 1 1 1 1 
1 1 1 1 1 1 1 1 1 
1 1 1 1 1 1 1 1 1 
1 1 1 1 1 1 1 1 1 
1 1 1 1 1 1 1 1 1 
1 1 1 1 1 1 1 1 1 
1 1 1 1 1 1 1 1 1 
1 1 1 1 1 1 1 1 1 
1 1 1 1 1 1 1 1 1 
1 1 1 1 1 1 1 1 1 
1 1 1 1 1 1 1 1 1 
1 1 1 1 1 1 1 1 1 
1 1 1 1 1 1 1 1 1 
1 1 1 1 1 1 1 1 1 
1 1 1 1 1 1 1 1 1 
1 1 1 1 1 1 1 1 1 
1 1 1 1 1 1 1 1 1 
1 1 1 1 1 1 1 1 1 
1 1 1 1 1 1 1 1 1 
1 1 1 1 1 1 1 1 1 
1 1 1 1 1 1 1 1 1 
1 1 1 1 1 1 1 1 1 
1 1 1 1 1 1 1 1 1 
1 1 1 1 1 1 1 1 1 
1 1 1 1 1 1 1 1 1 
1 1 1 1 1 1 1 1 1 
1 1 1 1 1 1 1 1 1 
1 1 1 1 1 1 1 1 1 
1 1 1 1 1 1 1 1 1 
1 1 1 1 1 1 1 1 1 
1 1 1 1 1 1 1 1 1 
1 1 1 1 1 1 1 1 1 
1 1 1 1 1 1 1 1 1 
1 1 1 1 1 1 1 1 1 
1 1 1 1 1 1 1 1 1 
1 1 1 1 1 1 1 1 1 
1 1 1 1 1 1 1 1 1 
1 1 1 1 1 1 1 1 1 
1 1 1 1 1 1 1 1 1 
1 1 1 1 1 1 1 1 1 
1 1 1 1 1 1 1 1 1 
1 1 1 1 1 1 1 1 1 
1 1 1 1 1 1 1 1 1 
1 1 1 1 1 1 1 1 1 
1 1 1 1 1 1 1 1 1 
1 1 1 1 1 1 1 1 1 
1 1 1 1 1 1 1 1 1 
1 1 1 1 1 1 1 1 1 
1 1 1 1 1 1 1 1 1 
1 1 1 1 1 1 1 1 1 
1 1 1 1 1 1 1 1 1 
1 1 1 1 1 1 1 1 1 
1 1 1 1 1 1 1 1 1 
1 1 1 1 1 1 1 1 1 
1 1 1 1 1 1 1 1 1 
1 1 1 1 1 1 1 1 1 
1 1 1 1 1 1 1 1 1 
1 1 1 1 1 1 1 1 1 
1 1 1 1 1 1 1 1 1 
1 1 1 1 1 1 1 1 1 
1 1 1 1 1 1 1 1 1 
1 1 1 1 1 1 1 1 1 
1 1 1 1 1 1 1 1 1 
1 1 1 1 1 1 1 1 1 
1 1 1 1 1 1 1 1 1 
1 1 1 1 1 1 1 1 1 
1 1 1 1 1 1 1 1 1 
1 
i 3 1000 int
0 0 0 0 0 0 0 0 0 
0 0 0 0 0 0 0 0 0 
0 0 0 0 0 0 0 0 0 
0 0 0 0 0 0 0 0 0 
0 0 0 0 0 0 0 0 0 
0 0 0 0 0 0 0 0 0 
0 0 0 0 0 0 0 0 0 
0 0 0 0 0 0 0 0 0 
0 0 0 0 0 0 0 0 0 
0 0 0 0 0 0 0 0 0 
0 0 0 0 0 0 0 0 0 
0 0 0 0 0 0 0 0 0 
0 0 0 0 0 0 0 0 0 
0 0 0 0 0 0 0 0 0 
0 0 0 0 0 0 0 0 0 
0 0 0 0 0 0 0 0 0 
0 0 0 0 0 0 0 0 0 
0 0 0 0 0 0 0 0 0 
0 0 0 0 0 0 0 0 0 
0 0 0 0 0 0 0 0 0 
0 0 0 0 0 0 0 0 0 
0 0 0 0 0 0 0 0 0 
0 0 0 0 0 0 0 0 0 
0 0 0 0 0 0 0 0 0 
0 0 0 0 0 0 0 0 0 
0 0 0 0 0 0 0 0 0 
0 0 0 0 0 0 0 0 0 
0 0 0 0 0 0 0 0 0 
0 0 0 0 0 0 0 0 0 
0 0 0 0 0 0 0 0 0 
0 0 0 0 0 0 0 0 0 
0 0 0 0 0 0 0 0 0 
0 0 0 0 0 0 0 0 0 
0 0 0 0 0 0 0 0 0 
0 0 0 0 0 0 0 0 0 
0 0 0 0 0 0 0 0 0 
0 0 0 0 0 0 0 0 0 
0 0 0 0 0 0 0 0 0 
0 0 0 0 0 0 0 0 0 
0 0 0 0 0 0 0 0 0 
0 0 0 0 0 0 0 0 0 
0 0 0 0 0 0 0 0 0 
0 0 0 0 0 0 0 0 0 
0 0 0 0 0 0 0 0 0 
0 0 0 0 0 0 0 0 0 
0 0 0 0 0 0 0 0 0 
0 0 0 0 0 0 0 0 0 
0 0 0 0 0 0 0 0 0 
0 0 0 0 0 0 0 0 0 
0 0 0 0 0 0 0 0 0 
0 0 0 0 0 0 0 0 0 
0 0 0 0 0 0 0 0 0 
0 0 0 0 0 0 0 0 0 
0 0 0 0 0 0 0 0 0 
0 0 0 0 0 0 0 0 0 
0 0 0 0 0 0 0 0 0 
0 0 0 0 0 0 0 0 0 
0 0 0 0 0 0 0 0 0 
0 0 0 0 0 0 0 0 0 
0 0 0 0 0 0 0 0 0 
0 0 0 0 0 0 0 0 0 
0 0 0 0 0 0 0 0 0 
0 0 0 0 0 0 0 0 0 
0 0 0 0 0 0 0 0 0 
0 0 0 0 0 0 0 0 0 
0 0 0 0 0 0 0 0 0 
0 0 0 0 0 0 0 0 0 
0 0 0 0 0 0 0 0 0 
0 0 0 0 0 0 0 0 0 
0 0 0 0 0 0 0 0 0 
0 0 0 0 0 0 0 0 0 
0 0 0 0 0 0 0 0 0 
0 0 0 0 0 0 0 0 0 
0 0 0 0 0 0 0 0 0 
0 0 0 0 0 0 0 0 0 
0 0 0 0 0 0 0 0 0 
0 0 0 0 0 0 0 0 0 
0 0 0 0 0 0 0 0 0 
0 0 0 0 0 0 0 0 0 
0 0 0 0 0 0 0 0 0 
0 0 0 0 0 0 0 0 0 
0 0 0 0 0 0 0 0 0 
0 0 0 0 0 0 0 0 0 
0 0 0 0 0 0 0 0 0 
0 0 0 0 0 0 0 0 0 
0 0 0 0 0 0 0 0 0 
0 0 0 0 0 0 0 0 0 
0 0 0 0 0 0 0 0 0 
0 0 0 0 0 0 0 0 0 
0 0 0 0 0 0 0 0 0 
0 0 0 0 0 0 0 0 0 
0 0 0 0 0 0 0 0 0 
0 0 0 0 0 0 0 0 0 
0 0 0 0 0 0 0 0 0 
0 0 0 0 0 0 0 0 0 
0 0 0 0 0 0 0 0 0 
0 0 0 0 0 0 0 0 0 
0 0 0 0 0 0 0 0 0 
0 0 0 0 0 0 0 0 0 
0 0 0 0 0 0 0 0 0 
0 0 0 0 0 0 0 0 0 
0 0 0 0 0 0 0 0 0 
0 0 0 0 0 0 0 0 0 
0 0 0 0 0 0 0 0 0 
0 0 0 0 0 0 0 0 0 
0 0 0 0 0 0 0 0 0 
0 0 0 0 0 0 0 0 0 
0 0 0 0 0 0 0 0 0 
0 0 0 0 0 0 0 0 0 
0 0 0 0 0 0 0 0 0 
0 0 0 0 0 0 0 0 0 
0 0 0 0 0 0 0 0 0 
0 0 0 0 0 0 0 0 0 
0 0 0 0 0 0 0 0 0 
0 0 0 0 0 0 0 0 0 
0 0 0 0 0 0 0 0 0 
0 0 0 0 0 0 0 0 0 
0 0 0 0 0 0 0 0 0 
0 0 0 0 0 0 0 0 0 
0 0 0 0 0 0 0 0 0 
0 0 0 0 0 0 0 0 0 
0 0 0 0 0 0 0 0 0 
0 0 0 0 0 0 0 0 0 
0 0 0 0 0 0 0 0 0 
0 0 0 0 0 0 0 0 0 
0 0 0 0 0 0 0 0 0 
0 0 0 0 0 0 0 0 0 
0 0 0 0 0 0 0 0 0 
0 0 0 0 0 0 0 0 0 
0 0 0 0 0 0 0 0 0 
0 0 0 0 0 0 0 0 0 
0 0 0 0 0 0 0 0 0 
0 0 0 0 0 0 0 0 0 
0 0 0 0 0 0 0 0 0 
0 0 0 0 0 0 0 0 0 
0 0 0 0 0 0 0 0 0 
0 0 0 0 0 0 0 0 0 
0 0 0 0 0 0 0 0 0 
0 0 0 0 0 0 0 0 0 
0 0 0 0 0 0 0 0 0 
0 0 0 0 0 0 0 0 0 
0 0 0 0 0 0 0 0 0 
0 0 0 0 0 0 0 0 0 
0 0 0 0 0 0 0 0 0 
0 0 0 0 0 0 0 0 0 
0 0 0 0 0 0 0 0 0 
0 0 0 0 0 0 0 0 0 
0 0 0 0 0 0 0 0 0 
0 0 0 0 0 0 0 0 0 
0 0 0 0 0 0 0 0 0 
0 0 0 0 0 0 0 0 0 
0 0 0 0 0 0 0 0 0 
0 0 0 0 0 0 0 0 0 
0 0 0 0 0 0 0 0 0 
0 0 0 0 0 0 0 0 0 
0 0 0 0 0 0 0 0 0 
0 0 0 0 0 0 0 0 0 
0 0 0 0 0 0 0 0 0 
0 0 0 0 0 0 0 0 0 
0 0 0 0 0 0 0 0 0 
0 0 0 0 0 0 0 0 0 
0 0 0 0 0 0 0 0 0 
0 0 0 0 0 0 0 0 0 
0 0 0 0 0 0 0 0 0 
0 0 0 0 0 0 0 0 0 
0 0 0 0 0 0 0 0 0 
0 0 0 0 0 0 0 0 0 
0 0 0 0 0 0 0 0 0 
0 0 0 0 0 0 0 0 0 
0 0 0 0 0 0 0 0 0 
0 0 0 0 0 0 0 0 0 
0 0 0 0 0 0 0 0 0 
0 0 0 0 0 0 0 0 0 
0 0 0 0 0 0 0 0 0 
0 0 0 0 0 0 0 0 0 
0 0 0 0 0 0 0 0 0 
0 0 0 0 0 0 0 0 0 
0 0 0 0 0 0 0 0 0 
0 0 0 0 0 0 0 0 0 
0 0 0 0 0 0 0 0 0 
0 0 0 0 0 0 0 0 0 
0 0 0 0 0 0 0 0 0 
0 0 0 0 0 0 0 0 0 
0 0 0 0 0 0 0 0 0 
0 0 0 0 0 0 0 0 0 
0 0 0 0 0 0 0 0 0 
0 0 0 0 0 0 0 0 0 
0 0 0 0 0 0 0 0 0 
0 0 0 0 0 0 0 0 0 
0 0 0 0 0 0 0 0 0 
0 0 0 0 0 0 0 0 0 
0 0 0 0 0 0 0 0 0 
0 0 0 0 0 0 0 0 0 
0 0 0 0 0 0 0 0 0 
0 0 0 0 0 0 0 0 0 
0 0 0 0 0 0 0 0 0 
0 0 0 0 0 0 0 0 0 
0 0 0 0 0 0 0 0 0 
0 0 0 0 0 0 0 0 0 
0 0 0 0 0 0 0 0 0 
0 0 0 0 0 0 0 0 0 
0 0 0 0 0 0 0 0 0 
0 0 0 0 0 0 0 0 0 
0 0 0 0 0 0 0 0 0 
0 0 0 0 0 0 0 0 0 
0 0 0 0 0 0 0 0 0 
0 0 0 0 0 0 0 0 0 
0 0 0 0 0 0 0 0 0 
0 0 0 0 0 0 0 0 0 
0 0 0 0 0 0 0 0 0 
0 0 0 0 0 0 0 0 0 
0 0 0 0 0 0 0 0 0 
0 0 0 0 0 0 0 0 0 
0 0 0 0 0 0 0 0 0 
0 0 0 0 0 0 0 0 0 
0 0 0 0 0 0 0 0 0 
0 0 0 0 0 0 0 0 0 
0 0 0 0 0 0 0 0 0 
0 0 0 0 0 0 0 0 0 
0 0 0 0 0 0 0 0 0 
0 0 0 0 0 0 0 0 0 
0 0 0 0 0 0 0 0 0 
0 0 0 0 0 0 0 0 0 
0 0 0 0 0 0 0 0 0 
0 0 0 0 0 0 0 0 0 
0 0 0 0 0 0 0 0 0 
0 0 0 0 0 0 0 0 0 
0 0 0 0 0 0 0 0 0 
0 0 0 0 0 0 0 0 0 
0 0 0 0 0 0 0 0 0 
0 0 0 0 0 0 0 0 0 
0 0 0 0 0 0 0 0 0 
0 0 0 0 0 0 0 0 0 
0 0 0 0 0 0 0 0 0 
0 0 0 0 0 0 0 0 0 
0 0 0 0 0 0 0 0 0 
0 0 0 0 0 0 0 0 0 
0 0 0 0 0 0 0 0 0 
0 0 0 0 0 0 0 0 0 
0 0 0 0 0 0 0 0 0 
0 0 0 0 0 0 0 0 0 
0 0 0 0 0 0 0 0 0 
0 0 0 0 0 0 0 0 0 
0 0 0 0 0 0 0 0 0 
0 0 0 0 0 0 0 0 0 
0 0 0 0 0 0 0 0 0 
0 0 0 0 0 0 0 0 0 
0 0 0 0 0 0 0 0 0 
0 0 0 0 0 0 0 0 0 
0 0 0 0 0 0 0 0 0 
0 0 0 0 0 0 0 0 0 
0 0 0 0 0 0 0 0 0 
0 0 0 0 0 0 0 0 0 
0 0 0 0 0 0 0 0 0 
0 0 0 0 0 0 0 0 0 
0 0 0 0 0 0 0 0 0 
0 0 0 0 0 0 0 0 0 
0 0 0 0 0 0 0 0 0 
0 0 0 0 0 0 0 0 0 
0 0 0 0 0 0 0 0 0 
0 0 0 0 0 0 0 0 0 
0 0 0 0 0 0 0 0 0 
0 0 0 0 0 0 0 0 0 
0 0 0 0 0 0 0 0 0 
0 0 0 0 0 0 0 0 0 
0 0 0 0 0 0 0 0 0 
0 0 0 0 0 0 0 0 0 
0 0 0 0 0 0 0 0 0 
0 0 0 0 0 0 0 0 0 
0 0 0 0 0 0 0 0 0 
0 0 0 0 0 0 0 0 0 
0 0 0 0 0 0 0 0 0 
0 0 0 0 0 0 0 0 0 
0 0 0 0 0 0 0 0 0 
0 0 0 0 0 0 0 0 0 
0 0 0 0 0 0 0 0 0 
0 0 0 0 0 0 0 0 0 
0 0 0 0 0 0 0 0 0 
0 0 0 0 0 0 0 0 0 
0 0 0 0 0 0 0 0 0 
0 0 0 0 0 0 0 0 0 
0 0 0 0 0 0 0 0 0 
0 0 0 0 0 0 0 0 0 
0 0 0 0 0 0 0 0 0 
0 0 0 0 0 0 0 0 0 
0 0 0 0 0 0 0 0 0 
0 0 0 0 0 0 0 0 0 
0 0 0 0 0 0 0 0 0 
0 0 0 0 0 0 0 0 0 
0 0 0 0 0 0 0 0 0 
0 0 0 0 0 0 0 0 0 
0 0 0 0 0 0 0 0 0 
0 0 0 0 0 0 0 0 0 
0 0 0 0 0 0 0 0 0 
0 0 0 0 0 0 0 0 0 
0 0 0 0 0 0 0 0 0 
0 0 0 0 0 0 0 0 0 
0 0 0 0 0 0 0 0 0 
0 0 0 0 0 0 0 0 0 
0 0 0 0 0 0 0 0 0 
0 0 0 0 0 0 0 0 0 
0 0 0 0 0 0 0 0 0 
0 0 0 0 0 0 0 0 0 
0 0 0 0 0 0 0 0 0 
0 0 0 0 0 0 0 0 0 
0 0 0 0 0 0 0 0 0 
0 0 0 0 0 0 0 0 0 
0 0 0 0 0 0 0 0 0 
0 0 0 0 0 0 0 0 0 
0 0 0 0 0 0 0 0 0 
0 0 0 0 0 0 0 0 0 
0 0 0 0 0 0 0 0 0 
0 0 0 0 0 0 0 0 0 
0 0 0 0 0 0 0 0 0 
0 0 0 0 0 0 0 0 0 
0 0 0 0 0 0 0 0 0 
0 0 0 0 0 0 0 0 0 
0 0 0 0 0 0 0 0 0 
0 0 0 0 0 0 0 0 0 
0 0 0 0 0 0 0 0 0 
0 0 0 0 0 0 0 0 0 
0 0 0 0 0 0 0 0 0 
0 0 0 0 0 0 0 0 0 
0 0 0 0 0 0 0 0 0 
0 0 0 0 0 0 0 0 0 
0 0 0 0 0 0 0 0 0 
0 0 0 0 0 0 0 0 0 
0 0 0 0 0 0 0 0 0 
0 0 0 0 0 0 0 0 0 
0 0 0 0 0 0 0 0 0 
0 0 0 0 0 0 0 0 0 
0 0 0 0 0 0 0 0 0 
0 0 0 0 0 0 0 0 0 
0 0 0 
v 3 1000 double
0.0058814870908 -0.0013544623461 -0.0030324592462 0.0045397804088 0.0025555581295 -0.0034167849508 -0.00040257945479 0.0051765561684 -0.0022005945576 
0.019497305725 -0.026642213779 -0.0045353692527 0.04548850059 -0.10564865808 -0.00095136237031 0.0017273305898 0.00098794524845 0.0065540239283 
0.00037742848782 0.0034646394368 0.0001336114344 -0.00031104265613 0.0048340660193 0.00056888064373 0.00029663272205 0.0035625252268 -0.0025290383717 
0.00020718533266 0.0051700178408 -0.0033257320722 0.0023959942328 -0.0018849032818 0.002090680222 0.12147822598 0.0068538567514 -0.011522198936 
0.10154191581 -0.045452297945 -0.0026276509702 0.005974044018 -0.0071508307317 0.0019474086184 -0.00075465718492 0.0027522541908 0.0010411580527 
-0.00099252578632 0.0027090725091 0.0004046184733 -0.0010681274436 0.0016481046236 0.0023522736277 0.00020512135442 0.0010001270575 0.00047143392393 
0.0004140078551 0.0011633380455 -0.00026534356067 0.0026330596724 -0.001376673666 0.0016082594711 0.0023048382591 -0.0015643018218 0.0035579262247 
0.12896057642 0.041924066287 -0.035394812312 0.16041843417 0.015403478905 0.022552522708 -0.000970817414 -0.0002109038285 -0.00093022860261 
-0.0015883188495 0.00011714099082 -0.00028479411656 0.00016599025968 0.00064551704448 -0.00047514050563 -0.0013595776393 0.0022775326411 3.6317794516e-05 
-0.000499318203 0.0023059470919 -0.0041764939669 -0.00015553208845 0.00096467004557 -0.003776430429 1.8407072439e-05 0.00061264414474 -0.001347767851 
0.00094682154098 0.00028698364393 -0.0013691018324 0.0025066260153 -0.0021733768535 0.0019549560069 0.0016970610668 -0.00084569388341 0.0042082955941 
0.0012298516816 0.0010098906724 0.0020671995084 0.0015967137737 0.0025142137604 0.0054815825318 -0.0010569990449 0.00029976768624 -0.0010982963625 
-0.00079693653196 -0.00018839736449 -0.0012404715757 -0.00074278427479 0.00099626039799 -0.0041180568791 -0.00011847371977 -0.00073383456173 -0.00086543142872 
0.000119991275 -0.00043879909919 -0.00063515829881 0.0013678761616 -0.0005937291652 0.0001177364542 4.2400029665e-05 -0.002269553657 0.0025262960084 
0.00056272467698 -0.00056842303559 0.0038413636949 0.00031768800279 8.7745041935e-05 0.0067662000433 0.00082960541343 -0.00058727581546 2.2720733083e-05 
0.00022088944019 -0.00031493247182 -0.00035354040314 -0.00077720640535 -0.0018335233547 -0.0019045429419 -0.00080457784484 -0.00095703637186 -0.00050271164473 
-0.0013173266293 -0.0020629387871 -0.00024621265387 -0.0013409186818 -0.0024405494345 -9.9498001253e-05 -0.0010696235589 -0.001285985034 0.00091924851068 
0.00021636815001 -0.0010653211802 0.0033159202954 0.002169537077 -0.00022320821392 -0.0016382630461 0.0018946205879 -0.00048269636699 -0.00044430858353 
0.0017115166725 0.0011587851079 -0.001594338286 0.003159031745 -0.0016823815131 -0.00085471535513 -0.0042938660058 0.0060127103688 -0.0010337823382 
-0.00023273430051 -0.00084732407883 0.00017460764336 -0.0030116546767 -0.001558601526 0.00028293946525 -0.0024318641767 -0.0054723305271 0.00083758883139 
0.00048960349609 0.0034709311265 -0.00020321488309 0.0043481606124 0.004710822176 -0.0016385236565 -0.020784784621 -0.08916572964 -0.0096411140348 
0.053447077251 -0.065434001656 -0.00025993628304 -0.00045714601702 0.0021830748268 8.8158139617e-05 0.00054662051938 0.0040166302649 -0.0019451344211 
0.00058199446239 0.0020390845246 -0.0017551095184 0.00035828464447 0.0046437802874 -0.0048749270856 -0.00092902560902 0.002121023224 0.00033287179845 
-0.00086567465068 0.0030283364687 9.5717836172e-05 -0.00098266077435 0.0019677751587 -0.0068869710179 6.1129534162e-05 0.0021035696701 -0.0004196529051 
0.0018667333951 0.0014164956165 0.00071848568903 0.0016714577319 0.00010374188452 -0.00031949580539 -0.00016150644082 -0.00021587998552 0.00025130451651 
0.0028405677086 -0.002353554011 0.0033620570395 0.0072770815196 0.00069788959529 0.0041665098609 0.0020907281684 -0.0018192835787 -0.0034607854514 
-0.00097965122061 -0.00019720266023 -0.0013397223331 -0.0015111074629 -1.7168442655e-05 -0.0013859964313 -0.00039659295141 0.0020336957405 0.0012598336332 
0.00043095566392 -0.00076947659109 -0.00093419652864 0.00032053679109 -0.00025579546431 -0.00074466678073 0.0003175604819 -0.0011693876645 0.00069773701341 
0.0012564969222 -0.0018620225871 0.0028532038875 0.0007833185472 -0.0003598009265 0.0035632036634 0.0014226151388 0.00057343454178 0.0045111211096 
-0.00086560738219 0.00035267745138 -0.0022231665292 -0.0019418709087 -0.00097038016255 -8.9068160487e-05 -0.00038987770095 -0.0005086778866 -0.00094865208338 
1.7513511789e-05 0.00078113162205 0.00024496598925 -0.00019606641996 0.0023550110302 -0.0037578274964 -0.00033875586369 -0.0005439569697 -0.00072489560549 
-0.00073695495273 -0.00250452812 -0.0002176495441 0.00066137164374 -0.0023924199114 0.0014982759315 -0.0010162606436 8.6206448393e-06 0.0017315811715 
-0.00059978082737 0.00041280528235 0.0037221692351 0.00048752757034 -0.00017999231881 0.0045296425718 -0.0012893918408 -0.00019659474351 0.0074918050529 
0.00062098890941 -3.5712988119e-05 -0.0020739228333 0.0011056131064 -0.00033344450292 -0.00079060085499 0.00033374925653 -0.0014609749149 0.0001294113989 
9.4825737696e-05 -0.00082601182783 -0.00014975074616 -0.00010274008068 -0.00094141935341 0.00080412476032 0.00017393127178 0.00073942085548 -0.00037012625266 
0.00012954764201 -0.0017168248172 -0.00057169526348 -0.00013670760484 -5.0442839388e-05 -0.0013715186613 -0.00082592998834 -0.00072613248674 -0.00081228252218 
-0.0010948978875 -0.0023872074103 -0.0004004226464 -0.0025221936218 -0.0013781673453 -0.00096068164749 -0.0023530547752 -0.00028952387153 -0.00065704855885 
-0.0024852372139 0.0006412597935 -0.001277903319 -0.0013194249552 0.0002836246433 0.0052320753464 -0.0015530792188 -0.0011722729374 0.0037306157595 
0.0019030622194 0.00066565393131 -0.0027500291276 0.0013717558461 -0.0013069776104 0.0012874568797 0.00078877449972 -0.00049151631757 -0.00074618819426 
0.0007404848659 0.000529073696 0.0014333231593 0.00026718391118 -0.0016068455772 0.00024278753001 -0.00035095104136 -0.0037117564268 0.0058762493555 
-0.0015094424397 -0.00021666136516 -0.00098650053022 -0.0027075187845 -0.00090164834717 0.00065100771002 0.0016680905335 0.00318484034 -0.00090044350613 
-0.00066040476271 0.0033744036215 -0.0011258581618 -0.0016050169929 0.0035873334963 -0.0017144179403 -0.0003630324804 -0.00021569616557 -0.0013837787654 
0.00064755342637 -0.001037132099 0.0011230792844 -0.0021497696073 0.0028372284206 0.00090939235827 -0.0019746975117 0.0014733244622 0.00011281894449 
0.0013782499039 -0.0014251554624 0.0011076184209 0.0020460082614 -0.0032991236024 6.231251669e-05 -0.00066931581158 0.00082541144683 0.00057986757123 
0.00042263825008 -0.0009272557872 0.0020370009321 0.0038671879152 0.0012927681176 0.0044188699609 -0.00087001610564 0.00068157916753 -0.001397536464 
-0.0013751999392 0.0010669560703 -0.00025182341572 -0.00091125086686 -0.00035116404079 0.00097815413093 -0.0018449281017 0.0017589640107 0.00023041659909 
0.0031952908188 0.002442167266 -0.0044422204829 0.002101350346 -0.00029100439003 0.00097792066253 0.00076812459561 -0.0014405033706 0.0010472346086 
0.0010166139756 -0.0016629305505 0.00012903403762 0.00045103797017 0.00013418532271 -0.00039127632247 0.00076121219777 -0.0020498161587 0.0038945980682 
-0.0027981562417 0.001258105385 0.0029894837583 -0.0011286732568 -0.00037094711728 -0.0016421278403 -0.0011766555923 0.00012003563803 0.00061386325772 