# vtk DataFile Version 5.1
Generated by LIGGGHTS
ASCII
DATASET POLYDATA
POINTS 1000 float
0.0156368 -0.0294799 0.00165501 0.0191177 -0.0120764 0.00197163 0.0153144 -0.00896378 0.00145217 
0.0185739 -0.00804814 0.00148654 -0.00488878 -0.00740518 0.00238532 -0.00254183 -0.00600514 0.0015058 
0.0162889 -0.00626566 0.00150882 0.0232019 -0.00624171 0.00147823 -0.0173855 -0.00454079 0.00227895 
0.0076776 -0.0045352 0.00163428 0.0116215 -0.00353446 0.00161048 0.0172205 -0.00357374 0.00146129 
0.0219875 -0.00372207 0.00204065 0.00424819 -0.000697851 0.00164257 0.00689504 -0.00180079 0.00157075 
0.0103748 -0.00771657 0.0519243 0.021678 -0.000861876 0.00201144 0.0017031 -0.0259497 0.00400469 
0.00445491 -0.0259914 0.00326657 0.0032752 -0.0235799 0.00425229 0.00429138 -0.0143 0.00365295 
0.0215261 -0.0133728 0.0027915 0.00409977 -0.0117765 0.00229851 0.0125665 -0.0118252 0.00306828 
0.0173334 -0.0101429 0.00308203 0.0228473 -0.0109891 0.00364197 -0.00245668 -0.00767168 0.0038251 
0.00523891 -0.00927238 0.00301383 0.00780577 -0.00913905 0.00166853 0.0159176 -0.00779317 0.00392879 
0.0186839 -0.00796691 0.00431693 0.0204018 -0.00973362 0.00292054 -0.00644285 -0.00555569 0.00393184 
-9.2916e-05 -0.00619439 0.0029605 0.0116967 -0.00598121 0.00309527 0.0211846 -0.00702028 0.00334067 
0.0255979 -0.007586 0.00225569 0.028325 -0.00738511 0.00312627 0.0311622 -0.00737335 0.00349109 
-0.0161505 -0.00408335 0.00479322 -0.0120481 -0.0036998 0.0037349 0.00930061 -0.00256246 0.00294188 
0.0130246 -0.00365619 0.00410172 0.0157853 -0.00451244 0.00376134 0.0194517 -0.00304459 0.0031536 
0.0245248 -0.00300038 0.00332239 0.0268358 -0.00504753 0.002407 0.0289753 -0.00483053 0.00428852 
0.0313055 -0.0046968 0.00262113 -0.0173682 -0.00192033 0.00337448 -0.0145223 -0.00237254 0.0031768 
-0.00767912 -0.00239877 0.00323304 -0.00380399 -0.00124143 0.00468694 -0.00169687 -0.00184084 0.00282761 
0.00383183 -0.00218255 0.00406078 0.00689865 -0.00197352 0.00437063 0.0169317 -0.00188572 0.00376877 
0.0192017 -0.000225895 0.00330485 0.0294749 -0.00249676 0.00268568 0.0055855 -0.0154206 0.00597729 
0.00275883 -0.012752 0.00551183 0.00875188 -0.0128862 0.00624971 0.00105855 -0.0108439 0.00426622 
0.00599088 -0.0126966 0.00529536 0.0174894 -0.0117785 0.00543637 0.00308282 -0.00894618 0.00495337 
0.00684871 -0.00818445 0.00510185 0.0113341 -0.00771362 0.00522793 0.0143482 -0.00999105 0.00491938 
0.0208597 -0.00914269 0.00564643 0.0235376 -0.00816856 0.00573655 -0.00445527 -0.0070521 0.00565695 
-0.000463067 -0.00670752 0.00570009 0.00437637 -0.00667204 0.0037965 0.0138131 -0.00623695 0.00499298 
0.0151589 -0.00487993 0.00712876 0.0190119 -0.00603247 0.00640397 0.0261978 -0.00759581 0.00502608 
-0.00224903 -0.00492392 0.00440552 0.000449541 -0.00384575 0.00454497 0.00229617 -0.00452598 0.00670975 
0.00716414 -0.00379488 0.00645672 0.0126494 -0.00351854 0.0069523 0.0200241 -0.0028413 0.0060109 
0.0311908 -0.00306096 0.00491971 -0.00113439 -0.00174158 0.00563233 0.0149515 -0.00186424 0.00713124 
0.0278361 -0.00193904 0.00508425 0.00451844 -0.0133657 0.00766354 0.0111125 -0.0130664 0.00783697 
-0.00135401 -0.0102436 0.00779687 0.0023647 -0.0114525 0.00801852 0.0134035 -0.0123331 0.00635103 
0.0215025 -0.0100584 0.0081681 0.000950609 -0.00838469 0.00753453 0.00511449 -0.0095113 0.00689413 
0.016268 -0.00845748 0.00756072 0.00631346 -0.0064057 0.00737204 0.0234259 -0.00523849 0.00758254 
0.0262225 -0.00576893 0.00714722 -0.00807686 -0.00392416 0.00811096 -0.0015247 -0.00442334 0.00706978 
0.00436329 -0.00368002 0.00847883 0.0136984 -0.00274031 0.00952438 -0.00602145 -0.00196245 0.00754727 
-0.00314704 -0.00191096 0.0076151 0.0239008 -0.00245161 0.00706938 -0.0102026 -0.0187429 0.0126242 
0.00619896 -0.0115356 0.00905585 0.017761 -0.0106484 0.00909324 0.00393589 -0.00877994 0.00940962 
0.00883956 -0.00858141 0.00901362 0.0118324 -0.00816733 0.00866801 0.0201166 -0.00602201 0.00952339 
-0.00394571 -0.00476508 0.00843384 0.00839071 -0.00283426 0.00872623 0.0114086 -0.00436576 0.00997039 
0.0209844 -0.00301942 0.00926588 0.0276688 -0.00480376 0.00945314 0.000871003 -0.00181731 0.00851061 
0.0151551 -0.000300775 0.00951557 0.0171371 -0.00231137 0.00996745 0.027952 -0.00174946 0.00876286 
-0.0168509 -0.00817311 0.0223952 0.0023089 -0.011819 0.0282378 0.0107075 -0.0104178 0.0281234 
0.020135 -0.0106972 0.0278657 -0.00088254 -0.0083535 0.028269 0.00450799 -0.00875778 0.028434 
0.00695685 -0.00636324 0.0283625 0.00996765 -0.00560825 0.0278531 0.000269919 -0.00253987 0.0280074 
0.0139483 -0.00476567 0.0286416 0.0194432 -0.00398836 0.0281909 -0.00723867 -0.00161703 0.0280601 
0.0293025 -0.00224623 0.0281316 0.0105373 -0.013162 0.0307393 0.0150534 -0.0126471 0.0297661 
0.00171744 -0.00900392 0.030512 0.00951497 -0.0080642 0.0297402 0.012606 -0.00794626 0.03132 
0.0165476 -0.00889946 0.0309954 0.0216972 -0.00880215 0.0313384 -0.00515729 -0.00708521 0.028945 
0.00252443 -0.00506457 0.0296649 0.0245803 -0.00726984 0.0302661 -0.00723029 -0.00435769 0.0299527 
-0.00459424 -0.00310115 0.0290702 0.00725789 -0.00349915 0.0296171 0.017108 -0.00300195 0.0306736 
0.0226114 -0.00453092 0.0289207 -0.0020623 -0.0018087 0.0306411 0.0137614 -0.00222457 0.0308908 
0.0226179 -0.0016597 0.030021 0.00968051 -0.0133938 0.0337406 0.00263912 -0.0118 0.0317875 
0.00620913 -0.0114518 0.0325807 0.0129948 -0.0124193 0.0326941 0.0240832 -0.00862879 0.0337904 
-0.00583245 -0.00628172 0.0318762 -0.00237281 -0.00745794 0.0328119 0.000554968 -0.0052981 0.0330905 
0.00378837 -0.00716791 0.0324978 0.00668328 -0.0057114 0.0321397 -0.00811056 -0.00275725 0.0325037 
0.00976868 -0.0038265 0.0318618 0.0266755 -0.00272967 0.0314992 -0.00109251 -0.00203691 0.0336215 
0.00226019 -0.00241906 0.0317907 0.0298767 -0.00217891 0.0325415 -0.000353447 -0.0106154 0.0350336 
0.0175912 -0.0121567 0.0343182 0.011493 -0.00983807 0.034233 0.0135313 -0.00754705 0.0343807 
0.0198704 -0.00990055 0.0342287 0.0201626 -0.00670628 0.034977 -0.005487 -0.00451522 0.0350194 
0.00933726 -0.00412522 0.034929 0.0268537 -0.00447958 0.0343974 0.00414641 -0.00186365 0.0349613 
0.0160463 -0.00162992 0.0339046 0.0206692 -0.0022492 0.0350287 -0.00154334 -0.0101732 0.0461172 
0.00349919 -0.0102358 0.0449704 0.00706869 -0.0124446 0.0455106 0.0064568 -0.00768496 0.0458871 
0.011844 -0.00976446 0.0458251 0.0158248 -0.00806689 0.0465076 0.0219084 -0.00938161 0.0454661 
0.00349982 -0.0070736 0.0460195 0.0134513 -0.00572242 0.0454327 0.01988 -0.00658548 0.0452352 
-0.00978838 -0.002504 0.0468083 -0.0055848 -0.00262286 0.0450305 0.00446161 -0.0026273 0.0452738 
0.00839111 -0.00467737 0.0449459 0.0112205 -0.00349384 0.0459967 0.0245364 -0.00360176 0.0468246 
0.0285673 -0.0043284 0.0450553 0.019515 -0.00186515 0.0449332 0.00654792 -0.0132181 0.0492922 
0.0110937 -0.0129354 0.0468706 0.0137241 -0.0100998 0.0483329 0.016809 -0.0109745 0.0474495 
0.00600125 -0.00958303 0.0486988 0.00936901 -0.00899664 0.0490034 0.0183862 -0.00838178 0.0483434 
-0.00705797 -0.00547328 0.047092 -0.00367241 -0.00516981 0.0473172 0.00663578 -0.00522061 0.0482034 
0.015608 -0.00627634 0.0491462 0.0200825 -0.00540089 0.0481752 0.0227121 -0.00706899 0.0477405 
0.0271361 -0.00566692 0.0474002 -0.000521577 -0.00334463 0.0479159 0.00836173 -0.00282971 0.0473368 
-0.00569476 -0.00203973 0.0489466 0.0150257 -0.00243068 0.048368 0.0272796 -0.00218533 0.0474321 
0.0041859 -0.0127503 0.0510979 0.0103648 -0.0132939 0.0502538 -0.00376229 -0.00833338 0.0506942 
0.000578021 -0.00905996 0.0495361 0.0139207 -0.00880097 0.0515887 0.0216941 -0.00991844 0.0505885 
-0.000430001 -0.00660907 0.0509889 0.00287227 -0.0062379 0.0497834 0.00755183 -0.00643588 0.0515462 
-0.00661758 -0.00498749 0.0502527 -0.00229182 -0.00409767 0.0503641 0.00639831 -0.00258572 0.0512911 
0.0110749 -0.00257683 0.0509093 0.0161083 -0.00401193 0.0510681 0.0233522 -0.00458587 0.0503218 
0.0286865 -0.00314983 0.0506255 -0.00961872 -0.00207077 0.0511824 0.00163857 -0.00168436 0.0507232 
0.0196131 -0.00227081 0.0496937 0.0250395 -0.00175307 0.0508322 0.00692926 -0.010494 0.0519252 
0.00231845 -0.00865902 0.0520016 -0.00356831 0.0022018 0.00148758 0.0146927 0.0019078 0.00154704 
0.0208982 0.00185663 0.00234376 0.0236513 0.00114628 0.00257884 0.026403 0.00187907 0.00235752 
0.0351584 0.000235787 0.00148173 -0.00545268 0.00431598 0.00188813 0.0243696 0.00370879 0.00150751 
0.0363884 0.00269495 0.00231352 0.00141422 0.00852087 0.00147787 0.0217385 0.00945227 0.00144188 
-0.000885831 0.0102523 0.00147938 0.0235657 0.0116425 0.00151389 0.0262232 0.0101988 0.00191749 
0.0290393 0.0106366 0.00206516 -0.0109721 0.0143292 0.00237621 -0.00881607 0.012758 0.00144202 
0.00272119 0.0147402 0.00188902 0.0235719 0.014543 0.00156432 0.026012 0.0130341 0.00159387 
0.0283939 0.0146094 0.0014628 -0.00856163 0.0155795 0.0014612 0.0239251 0.0174191 0.00155181 
0.0266773 0.0168817 0.0017434 -0.00541354 0.0195719 0.0018683 0.0029384 0.0175386 0.00176836 
-0.00803194 0.0207369 0.00178643 0.0049694 0.0228788 0.00150201 0.0247313 0.0201868 0.00153143 
0.0146211 0.0222204 0.00187628 0.0174436 0.0226997 0.00151242 0.000845061 0.0255716 0.00202544 
0.00366984 0.0254105 0.0015923 0.012554 0.0277542 0.00156121 0.0180514 0.0391651 0.00147291 
-0.0050818 0.00111114 0.00362979 -0.00222056 0.000859194 0.00361948 0.000481808 2.15622e-05 0.00410148 
0.00636135 0.000494883 0.00315829 0.0336638 0.00218757 0.00297131 0.0231776 0.00351495 0.00408804 
0.0262368 0.00446545 0.00349922 0.0308708 0.00282697 0.0031621 0.0392359 0.00288178 0.00258404 
-0.00685284 0.00669179 0.00272962 -0.00474088 0.00559275 0.00432175 0.00930501 0.00656787 0.00447603 
0.0115694 0.00732825 0.00291835 0.0190637 0.00639992 0.00310155 0.023943 0.00608767 0.00308364 
0.0319136 0.0072179 0.00378391 0.0334295 0.00504454 0.00256983 -0.00603569 0.00903351 0.00416661 
-0.00336681 0.00807155 0.00418405 -0.000967895 0.00769144 0.0027489 0.000630024 0.00984793 0.00384907 
0.00924508 0.00898497 0.00297981 0.01367 0.00860296 0.00437818 0.0232719 0.00879482 0.00369921 
[...]
POINT_DATA 1000
FIELD FieldData 7
id 1 1000 int
18 53 37 46 36 17 30 15 83 
16 38 33 19 235 104 777 164 24 
10 41 49 3 25 290 56 27 58 
22 12 13 45 48 302 2 50 4 
21 9 32 23 29 44 8 5 7 
274 39 34 141 40 51 291 205 43 
308 35 42 14 247 1 254 280 266 
52 297 263 251 295 285 294 264 270 
253 268 31 269 273 260 28 47 287 
265 300 289 65 54 299 309 26 262 
282 252 301 272 298 256 257 278 281 
305 259 255 283 271 304 276 261 20 
267 296 306 277 258 284 293 275 286 
307 292 303 132 288 279 57 531 520 
501 524 548 528 532 536 517 556 529 
554 558 504 508 552 526 518 521 549 
534 503 507 506 545 513 512 541 557 
547 551 515 535 544 533 502 525 522 
540 542 519 539 527 505 510 511 509 
543 555 516 546 538 523 553 530 537 
550 514 761 769 789 776 774 797 803 
796 758 800 804 806 764 783 793 752 
788 790 810 766 802 782 787 755 786 
784 757 762 791 772 763 767 753 799 
771 754 807 775 773 768 765 795 751 
778 798 808 794 759 756 760 780 785 
801 792 779 770 809 805 781 102 55 
186 72 66 136 199 131 160 69 147 
118 157 130 149 223 227 183 203 165 
80 175 222 90 127 120 86 231 208 
105 159 184 77 151 91 191 107 11 
6 218 202 242 380 248 89 232 212 
112 331 119 433 234 85 122 73 246 
63 189 99 455 229 237 61 145 243 
123 116 206 211 238 142 185 92 88 
100 204 62 155 78 169 178 163 154 
249 179 471 146 226 194 221 87 82 
126 245 196 106 182 110 64 140 97 
117 79 366 75 174 124 162 225 418 
103 195 484 219 177 98 236 224 153 
148 139 239 95 200 111 233 416 113 
378 67 383 214 449 397 209 96 359 
423 429 94 398 384 101 313 173 172 
213 250 317 128 210 152 220 241 166 
180 352 448 343 476 350 473 215 198 
150 342 84 428 415 490 93 137 244 
462 472 427 467 59 386 240 115 201 
385 332 394 444 109 412 310 379 436 
364 376 197 399 430 188 451 167 367 
228 447 349 437 121 81 176 360 76 
114 168 190 143 370 459 156 392 192 
207 323 158 434 357 499 486 129 68 
482 344 365 328 363 452 450 338 314 
161 413 460 425 354 454 453 135 362 
333 475 498 217 108 70 466 396 456 
340 311 361 405 497 181 408 337 494 
230 74 409 368 492 346 411 387 348 
371 406 481 465 391 377 395 336 319 
318 400 347 435 322 407 404 495 315 
485 341 388 463 381 402 60 71 432 
170 500 326 353 439 334 125 487 401 
339 369 469 477 193 393 457 468 389 
330 382 335 316 419 438 493 355 489 
445 410 216 421 374 403 470 358 446 
488 424 321 480 375 327 312 461 373 
483 420 414 474 479 464 390 491 356 
442 422 458 426 372 496 441 320 329 
431 133 417 440 144 324 345 478 325 
134 171 443 187 351 698 703 695 747 
678 670 656 727 593 619 625 707 606 
682 654 650 599 624 700 713 742 585 
598 743 672 586 590 674 576 702 618 
734 616 638 696 735 571 640 749 649 
642 685 679 647 711 645 655 566 724 
579 563 607 718 584 736 561 562 610 
721 710 723 622 634 748 715 578 570 
714 691 697 722 595 662 644 559 728 
628 750 604 740 560 592 631 564 690 
652 574 573 603 613 709 648 632 701 
596 673 629 659 738 730 680 611 664 
669 582 653 658 609 626 591 637 692 
719 683 605 745 636 614 660 739 588 
594 725 600 587 741 581 575 597 643 
620 651 608 708 615 746 639 686 681 
693 565 577 601 675 732 689 688 633 
717 731 744 627 684 705 589 666 569 
657 726 677 671 630 580 617 568 583 
706 737 646 733 694 676 667 665 621 
712 687 716 602 661 720 623 635 668 
641 729 699 612 704 567 663 572 876 
959 927 981 992 862 961 915 890 835 
855 843 901 979 871 856 910 924 917 
912 859 883 866 951 914 867 897 976 
982 828 948 968 902 973 834 970 857 
905 993 852 893 987 988 875 885 818 
925 952 811 989 906 821 860 922 945 
929 921 967 916 833 841 837 847 930 
935 936 814 813 863 812 953 990 943 
870 873 954 950 934 824 966 957 977 
949 881 963 933 836 816 845 889 868 
944 822 965 819 947 940 986 827 858 
978 874 848 898 839 878 939 919 932 
877 974 825 896 886 997 984 971 907 
840 942 900 891 931 911 937 864 817 
985 964 926 903 895 975 849 872 842 
851 969 983 823 955 920 908 846 815 
894 1000 960 884 956 826 844 904 996 
923 838 994 829 880 831 865 918 899 
854 820 980 830 972 887 892 879 913 
991 850 853 861 946 928 958 909 941 
869 882 998 888 938 995 999 832 962 
138 
type 1 1000 int
1 1 1 1 1 1 1 1 1 
1 1 1 1 1 1 1 1 1 
1 1 1 1 1 1 1 1 1 
1 1 1 1 1 1 1 1 1 
1 1 1 1 1 1 1 1 1 
1 1 1 1 1 1 1 1 1 
1 1 1 1 1 1 1 1 1 
1 1 1 1 1 1 1 1 1 
1 1 1 1 1 1 1 1 1 
1 1 1 1 1 1 1 1 1 
1 1 1 1 1 1 1 1 1 
1 1 1 1 1 1 1 1 1 
1 1 1 1 1 1 1 1 1 
1 1 1 1 1 1 1 1 1 
1 1 1 1 1 1 1 1 1 
1 1 1 1 1 1 1 1 1 
1 1 1 1 1 1 1 1 1 
1 1 1 1 1 1 1 1 1 
1 1 1 1 1 1 1 1 1 
1 1 1 1 1 1 1 1 1 
1 1 1 1 1 1 1 1 1 
1 1 1 1 1 1 1 1 1 
1 1 1 1 1 1 1 1 1 
1 1 1 1 1 1 1 1 1 
1 1 1 1 1 1 1 1 1 
1 1 1 1 1 1 1 1 1 
1 1 1 1 1 1 1 1 1 
1 1 1 1 1 1 1 1 1 
1 1 1 1 1 1 1 1 1 
1 1 1 1 1 1 1 1 1 
1 1 1 1 1 1 1 1 1 
1 1 1 1 1 1 1 1 1 
1 1 1 1 1 1 1 1 1 
1 1 1 1 1 1 1 1 1 
1 1 1 1 1 1 1 1 1 
1 1 1 1 1 1 1 1 1 
1 1 1 1 1 1 1 1 1 
1 1 1 1 1 1 1 1 1 
1 1 1 1 1 1 1 1 1 
1 1 1 1 1 1 1 1 1 
1 1 1 1 1 1 1 1 1 
1 1 1 1 1 1 1 1 1 
1 1 1 1 1 1 1 1 1 
1 1 1 1 1 1 1 1 1 
1 1 1 1 1 1 1 1 1 
1 1 1 1 1 1 1 1 1 
1 1 1 1 1 1 1 1 1 
1 1 1 1 1 1 1 1 1 
1 1 1 1 1 1 1 1 1 
1 1 1 1 1 1 1 1 1 
1 1 1 1 1 1 1 1 1 
1 1 1 1 1 1 1 1 1 
1 1 1 1 1 1 1 1 1 
1 1 1 1 1 1 1 1 1 
1 1 1 1 1 1 1 1 1 
1 1 1 1 1 1 1 1 1 
1 1 1 1 1 1 1 1 1 
1 1 1 1 1 1 1 1 1 
1 1 1 1 1 1 1 1 1 
1 1 1 1 1 1 1 1 1 
1 1 1 1 1 1 1 1 1 
1 1 1 1 1 1 1 1 1 
1 1 1 1 1 1 1 1 1 
1 1 1 1 1 1 1 1 1 
1 1 1 1 1 1 1 1 1 
1 1 1 1 1 1 1 1 1 
1 1 1 1 1 1 1 1 1 
1 1 1 1 1 1 1 1 1 
1 1 1 1 1 1 1 1 1 
1 1 1 1 1 1 1 1 1 
1 1 1 1 1 1 1 1 1 
1 1 1 1 1 1 1 1 1 
1 1 1 1 1 1 1 1 1 
1 1 1 1 1 1 1 1 1 
1 1 1 1 1 1 1 1 1 
1 1 1 1 1 1 1 1 1 
1 1 1 1 1 1 1 1 1 
1 1 1 1 1 1 1 1 1 
1 1 1 1 1 1 1 1 1 
1 1 1 1 1 1 1 1 1 
1 1 1 1 1 1 1 1 1 
1 1 1 1 1 1 1 1 1 
1 1 1 1 1 1 1 1 1 
1 1 1 1 1 1 1 1 1 
1 1 1 1 1 1 1 1 1 
1 1 1 1 1 1 1 1 1 
1 1 1 1 1 1 1 1 1 
1 1 1 1 1 1 1 1 1 
1 1 1 1 1 1 1 1 1 
1 1 1 1 1 1 1 1 1 
1 1 1 1 1 1 1 1 1 
1 1 1 1 1 1 1 1 1 
1 1 1 1 1 1 1 1 1 
1 1 1 1 1 1 1 1 1 
1 1 1 1 1 1 1 1 1 
1 1 1 1 1 1 1 1 1 
1 1 1 1 1 1 1 1 1 
1 1 1 1 1 1 1 1 1 
1 1 1 1 1 1 1 1 1 
1 1 1 1 1 1 1 1 1 
1 1 1 1 1 1 1 1 1 
1 1 1 1 1 1 1 1 1 
1 1 1 1 1 1 1 1 1 
1 1 1 1 1 1 1 1 1 
1 1 1 1 1 1 1 1 1 
1 1 1 1 1 1 1 1 1 
1 1 1 1 1 1 1 1 1 
1 1 1 1 1 1 1 1 1 
1 1 1 1 1 1 1 1 1 
1 1 1 1 1 1 1 1 1 
1 1 1 1 1 1 1 1 1 
1 
i 3 1000 int
0 0 0 0 0 0 0 0 0 
0 0 0 0 0 0 0 0 0 
0 0 0 0 0 0 0 0 0 
0 0 0 0 0 0 0 0 0 
0 0 0 0 0 0 0 0 0 
0 0 0 0 0 0 0 0 0 
0 0 0 0 0 0 0 0 0 
0 0 0 0 0 0 0 0 0 
0 0 0 0 0 0 0 0 0 
0 0 0 0 0 0 0 0 0 
0 0 0 0 0 0 0 0 0 
0 0 0 0 0 0 0 0 0 
0 0 0 0 0 0 0 0 0 
0 0 0 0 0 0 0 0 0 
0 0 0 0 0 0 0 0 0 
0 0 0 0 0 0 0 0 0 
0 0 0 0 0 0 0 0 0 
0 0 0 0 0 0 0 0 0 
0 0 0 0 0 0 0 0 0 
0 0 0 0 0 0 0 0 0 
0 0 0 0 0 0 0 0 0 
0 0 0 0 0 0 0 0 0 
0 0 0 0 0 0 0 0 0 
0 0 0 0 0 0 0 0 0 
0 0 0 0 0 0 0 0 0 
0 0 0 0 0 0 0 0 0 
0 0 0 0 0 0 0 0 0 
0 0 0 0 0 0 0 0 0 
0 0 0 0 0 0 0 0 0 
0 0 0 0 0 0 0 0 0 
0 0 0 0 0 0 0 0 0 
0 0 0 0 0 0 0 0 0 
0 0 0 0 0 0 0 0 0 
0 0 0 0 0 0 0 0 0 
0 0 0 0 0 0 0 0 0 
0 0 0 0 0 0 0 0 0 
0 0 0 0 0 0 0 0 0 
0 0 0 0 0 0 0 0 0 
0 0 0 0 0 0 0 0 0 
0 0 0 0 0 0 0 0 0 
0 0 0 0 0 0 0 0 0 
0 0 0 0 0 0 0 0 0 
0 0 0 0 0 0 0 0 0 
0 0 0 0 0 0 0 0 0 
0 0 0 0 0 0 0 0 0 
0 0 0 0 0 0 0 0 0 
0 0 0 0 0 0 0 0 0 
0 0 0 0 0 0 0 0 0 
0 0 0 0 0 0 0 0 0 
0 0 0 0 0 0 0 0 0 
0 0 0 0 0 0 0 0 0 
0 0 0 0 0 0 0 0 0 
0 0 0 0 0 0 0 0 0 
0 0 0 0 0 0 0 0 0 
0 0 0 0 0 0 0 0 0 
0 0 0 0 0 0 0 0 0 
0 0 0 0 0 0 0 0 0 
0 0 0 0 0 0 0 0 0 
0 0 0 0 0 0 0 0 0 
0 0 0 0 0 0 0 0 0 
0 0 0 0 0 0 0 0 0 
0 0 0 0 0 0 0 0 0 
0 0 0 0 0 0 0 0 0 
0 0 0 0 0 0 0 0 0 
0 0 0 0 0 0 0 0 0 
0 0 0 0 0 0 0 0 0 
0 0 0 0 0 0 0 0 0 
0 0 0 0 0 0 0 0 0 
0 0 0 0 0 0 0 0 0 
0 0 0 0 0 0 0 0 0 
0 0 0 0 0 0 0 0 0 
0 0 0 0 0 0 0 0 0 
0 0 0 0 0 0 0 0 0 
0 0 0 0 0 0 0 0 0 
0 0 0 0 0 0 0 0 0 
0 0 0 0 0 0 0 0 0 
0 0 0 0 0 0 0 0 0 
0 0 0 0 0 0 0 0 0 
0 0 0 0 0 0 0 0 0 
0 0 0 0 0 0 0 0 0 
0 0 0 0 0 0 0 0 0 
0 0 0 0 0 0 0 0 0 
0 0 0 0 0 0 0 0 0 
0 0 0 0 0 0 0 0 0 
0 0 0 0 0 0 0 0 0 
0 0 0 0 0 0 0 0 0 
0 0 0 0 0 0 0 0 0 
0 0 0 0 0 0 0 0 0 
0 0 0 0 0 0 0 0 0 
0 0 0 0 0 0 0 0 0 
0 0 0 0 0 0 0 0 0 
0 0 0 0 0 0 0 0 0 
0 0 0 0 0 0 0 0 0 
0 0 0 0 0 0 0 0 0 
0 0 0 0 0 0 0 0 0 
0 0 0 0 0 0 0 0 0 
0 0 0 0 0 0 0 0 0 
0 0 0 0 0 0 0 0 0 
0 0 0 0 0 0 0 0 0 
0 0 0 0 0 0 0 0 0 
0 0 0 0 0 0 0 0 0 
0 0 0 0 0 0 0 0 0 
0 0 0 0 0 0 0 0 0 
0 0 0 0 0 0 0 0 0 
0 0 0 0 0 0 0 0 0 
0 0 0 0 0 0 0 0 0 
0 0 0 0 0 0 0 0 0 
0 0 0 0 0 0 0 0 0 
0 0 0 0 0 0 0 0 0 
0 0 0 0 0 0 0 0 0 
0 0 0 0 0 0 0 0 0 
0 0 0 0 0 0 0 0 0 
0 0 0 0 0 0 0 0 0 
0 0 0 0 0 0 0 0 0 
0 0 0 0 0 0 0 0 0 
0 0 0 0 0 0 0 0 0 
0 0 0 0 0 0 0 0 0 
0 0 0 0 0 0 0 0 0 
0 0 0 0 0 0 0 0 0 
0 0 0 0 0 0 0 0 0 
0 0 0 0 0 0 0 0 0 
0 0 0 0 0 0 0 0 0 
0 0 0 0 0 0 0 0 0 
0 0 0 0 0 0 0 0 0 
0 0 0 0 0 0 0 0 0 
0 0 0 0 0 0 0 0 0 
0 0 0 0 0 0 0 0 0 
0 0 0 0 0 0 0 0 0 
0 0 0 0 0 0 0 0 0 
0 0 0 0 0 0 0 0 0 
0 0 0 0 0 0 0 0 0 
0 0 0 0 0 0 0 0 0 
0 0 0 0 0 0 0 0 0 
0 0 0 0 0 0 0 0 0 
0 0 0 0 0 0 0 0 0 
0 0 0 0 0 0 0 0 0 
0 0 0 0 0 0 0 0 0 
0 0 0 0 0 0 0 0 0 
0 0 0 0 0 0 0 0 0 
0 0 0 0 0 0 0 0 0 
0 0 0 0 0 0 0 0 0 
0 0 0 0 0 0 0 0 0 
0 0 0 0 0 0 0 0 0 
0 0 0 0 0 0 0 0 0 
0 0 0 0 0 0 0 0 0 
0 0 0 0 0 0 0 0 0 
0 0 0 0 0 0 0 0 0 
0 0 0 0 0 0 0 0 0 
0 0 0 0 0 0 0 0 0 
0 0 0 0 0 0 0 0 0 
0 0 0 0 0 0 0 0 0 
0 0 0 0 0 0 0 0 0 
0 0 0 0 0 0 0 0 0 
0 0 0 0 0 0 0 0 0 
0 0 0 0 0 0 0 0 0 
0 0 0 0 0 0 0 0 0 
0 0 0 0 0 0 0 0 0 
0 0 0 0 0 0 0 0 0 
0 0 0 0 0 0 0 0 0 
0 0 0 0 0 0 0 0 0 
0 0 0 0 0 0 0 0 0 
0 0 0 0 0 0 0 0 0 
0 0 0 0 0 0 0 0 0 
0 0 0 0 0 0 0 0 0 
0 0 0 0 0 0 0 0 0 
0 0 0 0 0 0 0 0 0 
0 0 0 0 0 0 0 0 0 
0 0 0 0 0 0 0 0 0 
0 0 0 0 0 0 0 0 0 
0 0 0 0 0 0 0 0 0 
0 0 0 0 0 0 0 0 0 
0 0 0 0 0 0 0 0 0 
0 0 0 0 0 0 0 0 0 
0 0 0 0 0 0 0 0 0 
0 0 0 0 0 0 0 0 0 
0 0 0 0 0 0 0 0 0 
0 0 0 0 0 0 0 0 0 
0 0 0 0 0 0 0 0 0 
0 0 0 0 0 0 0 0 0 
0 0 0 0 0 0 0 0 0 
0 0 0 0 0 0 0 0 0 
0 0 0 0 0 0 0 0 0 
0 0 0 0 0 0 0 0 0 
0 0 0 0 0 0 0 0 0 
0 0 0 0 0 0 0 0 0 
0 0 0 0 0 0 0 0 0 
0 0 0 0 0 0 0 0 0 
0 0 0 0 0 0 0 0 0 
0 0 0 0 0 0 0 0 0 
0 0 0 0 0 0 0 0 0 
0 0 0 0 0 0 0 0 0 
0 0 0 0 0 0 0 0 0 
0 0 0 0 0 0 0 0 0 
0 0 0 0 0 0 0 0 0 
0 0 0 0 0 0 0 0 0 
0 0 0 0 0 0 0 0 0 
0 0 0 0 0 0 0 0 0 
0 0 0 0 0 0 0 0 0 
0 0 0 0 0 0 0 0 0 
0 0 0 0 0 0 0 0 0 
0 0 0 0 0 0 0 0 0 
0 0 0 0 0 0 0 0 0 
0 0 0 0 0 0 0 0 0 
0 0 0 0 0 0 0 0 0 
0 0 0 0 0 0 0 0 0 
0 0 0 0 0 0 0 0 0 
0 0 0 0 0 0 0 0 0 
0 0 0 0 0 0 0 0 0 
0 0 0 0 0 0 0 0 0 
0 0 0 0 0 0 0 0 0 
0 0 0 0 0 0 0 0 0 
0 0 0 0 0 0 0 0 0 
0 0 0 0 0 0 0 0 0 
0 0 0 0 0 0 0 0 0 
0 0 0 0 0 0 0 0 0 
0 0 0 0 0 0 0 0 0 
0 0 0 0 0 0 0 0 0 
0 0 0 0 0 0 0 0 0 
0 0 0 0 0 0 0 0 0 
0 0 0 0 0 0 0 0 0 
0 0 0 0 0 0 0 0 0 
0 0 0 0 0 0 0 0 0 
0 0 0 0 0 0 0 0 0 
0 0 0 0 0 0 0 0 0 
0 0 0 0 0 0 0 0 0 
0 0 0 0 0 0 0 0 0 
0 0 0 0 0 0 0 0 0 
0 0 0 0 0 0 0 0 0 
0 0 0 0 0 0 0 0 0 
0 0 0 0 0 0 0 0 0 
0 0 0 0 0 0 0 0 0 
0 0 0 0 0 0 0 0 0 
0 0 0 0 0 0 0 0 0 
0 0 0 0 0 0 0 0 0 
0 0 0 0 0 0 0 0 0 
0 0 0 0 0 0 0 0 0 
0 0 0 0 0 0 0 0 0 
0 0 0 0 0 0 0 0 0 
0 0 0 0 0 0 0 0 0 
0 0 0 0 0 0 0 0 0 
0 0 0 0 0 0 0 0 0 
0 0 0 0 0 0 0 0 0 
0 0 0 0 0 0 0 0 0 
0 0 0 0 0 0 0 0 0 
0 0 0 0 0 0 0 0 0 
0 0 0 0 0 0 0 0 0 
0 0 0 0 0 0 0 0 0 
0 0 0 0 0 0 0 0 0 
0 0 0 0 0 0 0 0 0 
0 0 0 0 0 0 0 0 0 
0 0 0 0 0 0 0 0 0 
0 0 0 0 0 0 0 0 0 
0 0 0 0 0 0 0 0 0 
0 0 0 0 0 0 0 0 0 
0 0 0 0 0 0 0 0 0 
0 0 0 0 0 0 0 0 0 
0 0 0 0 0 0 0 0 0 
0 0 0 0 0 0 0 0 0 
0 0 0 0 0 0 0 0 0 
0 0 0 0 0 0 0 0 0 
0 0 0 0 0 0 0 0 0 
0 0 0 0 0 0 0 0 0 
0 0 0 0 0 0 0 0 0 
0 0 0 0 0 0 0 0 0 
0 0 0 0 0 0 0 0 0 
0 0 0 0 0 0 0 0 0 
0 0 0 0 0 0 0 0 0 
0 0 0 0 0 0 0 0 0 
0 0 0 0 0 0 0 0 0 
0 0 0 0 0 0 0 0 0 
0 0 0 0 0 0 0 0 0 
0 0 0 0 0 0 0 0 0 
0 0 0 0 0 0 0 0 0 
0 0 0 0 0 0 0 0 0 
0 0 0 0 0 0 0 0 0 
0 0 0 0 0 0 0 0 0 
0 0 0 0 0 0 0 0 0 
0 0 0 0 0 0 0 0 0 
0 0 0 0 0 0 0 0 0 
0 0 0 0 0 0 0 0 0 
0 0 0 0 0 0 0 0 0 
0 0 0 0 0 0 0 0 0 
0 0 0 0 0 0 0 0 0 
0 0 0 0 0 0 0 0 0 
0 0 0 0 0 0 0 0 0 
0 0 0 0 0 0 0 0 0 
0 0 0 0 0 0 0 0 0 
0 0 0 0 0 0 0 0 0 
0 0 0 0 0 0 0 0 0 
0 0 0 0 0 0 0 0 0 
0 0 0 0 0 0 0 0 0 
0 0 0 0 0 0 0 0 0 
0 0 0 0 0 0 0 0 0 
0 0 0 0 0 0 0 0 0 
0 0 0 0 0 0 0 0 0 
0 0 0 0 0 0 0 0 0 
0 0 0 0 0 0 0 0 0 
0 0 0 0 0 0 0 0 0 
0 0 0 0 0 0 0 0 0 
0 0 0 0 0 0 0 0 0 
0 0 0 0 0 0 0 0 0 
0 0 0 0 0 0 0 0 0 
0 0 0 0 0 0 0 0 0 
0 0 0 0 0 0 0 0 0 
0 0 0 0 0 0 0 0 0 
0 0 0 0 0 0 0 0 0 
0 0 0 0 0 0 0 0 0 
0 0 0 0 0 0 0 0 0 
0 0 0 0 0 0 0 0 0 
0 0 0 0 0 0 0 0 0 
0 0 0 0 0 0 0 0 0 
0 0 0 0 0 0 0 0 0 
0 0 0 0 0 0 0 0 0 
0 0 0 0 0 0 0 0 0 
0 0 0 0 0 0 0 0 0 
0 0 0 0 0 0 0 0 0 
0 0 0 0 0 0 0 0 0 
0 0 0 0 0 0 0 0 0 
0 0 0 0 0 0 0 0 0 
0 0 0 0 0 0 0 0 0 
0 0 0 0 0 0 0 0 0 
0 0 0 0 0 0 0 0 0 
0 0 0 0 0 0 0 0 0 
0 0 0 0 0 0 0 0 0 
0 0 0 0 0 0 0 0 0 
0 0 0 0 0 0 0 0 0 
0 0 0 0 0 0 0 0 0 
0 0 0 0 0 0 0 0 0 
0 0 0 0 0 0 0 0 0 
0 0 0 0 0 0 0 0 0 
0 0 0 0 0 0 0 0 0 
0 0 0 0 0 0 0 0 0 
0 0 0 0 0 0 0 0 0 
0 0 0 
v 3 1000 double
0.082961598639 -0.58330307265 -0.10843580082 0.20255542519 -0.039228989253 -0.28565728593 -0.14537436473 -0.045231120303 -0.02550806696 
-0.037036955939 0.039990931875 -0.16963196322 -0.060383507677 -0.14685028941 0.1354211898 -0.35029871399 0.054428140717 0.084279984083 
-0.076386302632 -0.13859049692 -0.04294132734 0.18008747699 -0.084826439937 0.025550737477 -0.21779474711 -0.14682356243 0.22828747303 
-0.074543358112 0.063061650491 0.026484379213 -0.19191582054 0.15915990294 0.30511159762 -0.32257706457 0.051931365591 -0.10703181871 
0.26697642339 0.05735936843 -0.18730732806 -0.064781439396 0.036075782128 0.36048015401 -0.064549194086 0.13999616598 -0.04363089718 
0 0 -0.41577095 0.07549412586 0.024890300239 -0.14012452492 0.064947389576 -0.51829544094 0.11667678893 
0.017815243912 -0.60656977405 -0.048765045523 0.11744996454 -0.53946244334 -0.07641530513 0.074436635146 -0.2547629836 -0.46068709431 
0.10386422459 -0.023442452501 -0.038035206842 0.10097082325 -0.18482931915 -0.33632519336 0 0 -1.00437095 
-0.0014303040944 -0.058051111896 -0.20544024249 0.04845429043 0.10585653612 -0.16940986891 0.084428979414 -0.040559718932 -0.078226539913 
0.066757312668 -0.2041963025 -0.50073247216 -0.099662916873 -0.13172896204 -0.64000225698 -0.064156222524 -0.089778679627 0.060941549037 
-0.01394987102 -0.069055332417 -0.041891996148 -0.060308816851 -0.0058593244205 -0.27699002811 -0.19457222891 -0.074895856084 -0.38145652015 
-0.13652828641 0.0021661234683 -0.44021132261 0.025281640857 0.25180640605 -0.068037380492 0.073007563614 -0.14080897726 0.069578816277 
0.25702497025 -0.24410631619 -0.38709747507 0.20675676087 -0.20712334239 -0.2730817488 0.077006931539 -0.12492550532 -0.2209656877 
-0.19268408946 -0.042760934067 0.11361909292 -0.31739799165 -0.013417507631 -0.081132343505 -0.1186618817 0.1045110978 0.19720144733 
-0.0048599795915 0.015165522466 0.16065140342 -0.10821810948 -0.016785251001 -0.17273145191 0.014202939015 0.095489496024 -0.13978542499 
0.27968736264 0.11179000257 -0.62477102636 0.13903377477 -0.21449124318 -0.040475678821 0.16923594641 -0.14844370884 -0.093403076378 
-0.0361394422 -0.084084321006 -0.24527702469 -0.35836195213 -0.2121956611 0.16565889514 -0.38039555552 0.16942532761 0.017113374666 
0 0 -1.00437095 0.1221802167 -0.16238517146 -0.036952739876 0.10068347918 -0.086257383023 -0.053507567349 
-0.030360135071 -0.19707239026 0.054385062159 -0.064377039465 0.2499335017 -0.0072129633369 0.053189708322 -0.046923226364 0.023046856587 
0.07518850405 -0.0028192666232 0.057033665825 0.0085273781522 -0.1070622551 0.042552492837 -0.087974072571 -0.052159170567 -0.25014883385 
0.0049609447282 -0.052425585771 -0.59361822067 0.094615055728 -0.031019591987 -0.67869751795 0.073313285849 -0.21474144309 -0.82213300679 
0.024210561168 -0.093244795523 -0.45575631452 0.055997200048 -0.18190108394 -0.56745462331 -0.21291495916 0.090936623326 -0.66964979409 
-0.41552331029 0.097621779574 -0.29294611325 -0.056903041296 -0.056531405741 -0.52288178048 -0.12687472718 -0.21057690149 -0.48338483121 
0.086031614365 -0.04278719059 -0.49380838184 0.20850406652 -0.066427871181 -0.56257503381 -0.0096190333885 0.022079543134 -0.90650809705 
-0.1460908296 -0.0090111622773 -0.19009280598 -0.11075017857 0.01968113854 -0.92341967593 0.0092262547213 -0.0044679011787 0.019108785244 
0.23309633059 0.064123136889 -0.19324445033 0.035944205706 0.29526110566 -0.25495165035 0.18711169664 -0.30455749581 -0.49367744172 
-0.07110005205 0.23706920256 -0.4801683574 0.095600388712 -0.10029967846 -0.39844218939 0.2007384623 -0.054273949979 -0.62785283751 
-0.050080504773 -0.13715943178 -0.29295594912 0.1157636682 -0.081724295351 0.13446730878 0.21751391973 -0.00096123082149 0.060951056461 
0.13610749102 -0.048327180106 -0.09458331698 0.20611316647 -0.14396432548 -0.12548740008 -0.047637997377 -0.027177660648 -0.27768036814 
0.0098235196955 -0.0036564806821 -1.0167903735 -0.24970086757 0.068808140937 -0.57131014956 0.30273309227 -0.061127067476 -0.88293926287 
0.036710308011 0.028733879812 -1.0076985844 -0.086578937091 0.13027330665 -0.56922837574 -0.23688791306 -0.33631287919 -0.71279408752 
0.11130158558 0.0085286850272 -0.83486267909 0.048207136086 -0.30689437735 -0.50739826091 -0.0037645459895 0.05247548507 -0.78256475661 
0 0 -1.00437095 -0.079801136712 -0.48515522885 -0.71110696397 0.13513802164 -0.08544128035 -0.70171362587 
-0.065462425932 0.043766247374 -0.64906732033 -0.099849387014 -0.040117656628 -0.96375475763 -0.085750463902 0.2614358615 -0.27033212873 
0.34830844533 0.034058417183 -0.59932919613 0.26417370729 0.05860179258 -0.16558381933 -0.18439974942 0.011096346091 -0.79619405972 
0.0080326444782 -0.052001915626 -0.34230758215 -0.024615454843 -0.076774637263 -0.95340589115 -0.45110325361 -0.28775223375 0.16173178353 
-0.033908986137 0.16524670868 -0.74879767339 0 0 -1.00437095 0.017323480308 0.039238700614 -0.70867015725 
0 0 -1.00437095 0 0 -1.00437095 0.17601631966 0.091589235335 -0.34259413801 
0.064248284412 0.048111488862 -0.98561152808 0.069140016616 -0.021870961071 -0.79499137747 0.19873091389 0.09302103034 -0.66501728279 
0 0 -1.00437095 0.25485108578 0.21252474117 -0.55485690188 0 0 -1.00437095 
0.12037783335 0.082210619724 -0.3335099943 0.15984951219 -0.030820960457 -0.68104320439 0 0 -1.00437095 
-0.30762627204 -0.22204188241 0.54252712677 0 0 -0.71007095 0 0 -0.71007095 
0 0 -0.71007095 0 0 -0.71007095 0 0 -0.71007095 
0 0 -0.71007095 0 0 -0.71007095 0 0 -0.71007095 
0 0 -0.71007095 0 0 -0.71007095 0 0 -0.71007095 
0 0 -0.71007095 0 0 -0.71007095 0 0 -0.71007095 
0 0 -0.71007095 0 0 -0.71007095 0 0 -0.71007095 
0 0 -0.71007095 0 0 -0.71007095 0 0 -0.71007095 
0 0 -0.71007095 0 0 -0.71007095 0 0 -0.71007095 
0 0 -0.71007095 0 0 -0.71007095 0 0 -0.71007095 
0 0 -0.71007095 0 0 -0.71007095 0 0 -0.71007095 
0 0 -0.71007095 0 0 -0.71007095 0 0 -0.71007095 
0 0 -0.71007095 0 0 -0.71007095 0 0 -0.71007095 
0 0 -0.71007095 0 0 -0.71007095 0 0 -0.71007095 
0 0 -0.71007095 0 0 -0.71007095 0 0 -0.71007095 
0 0 -0.71007095 0 0 -0.71007095 0 0 -0.71007095 
0 0 -0.71007095 0 0 -0.71007095 0 0 -0.71007095 
0 0 -0.71007095 0 0 -0.71007095 0 0 -0.71007095 
0 0 -0.71007095 0 0 -0.71007095 0 0 -0.71007095 
0 0 -0.71007095 0 0 -0.71007095 0 0 -0.71007095 
0 0 -0.71007095 0 0 -0.71007095 0 0 -0.41577095 
0 0 -0.41577095 0 0 -0.41577095 0 0 -0.41577095 
0 0 -0.41577095 0 0 -0.41577095 0 0 -0.41577095 
0 0 -0.41577095 0 0 -0.41577095 0 0 -0.41577095 
0 0 -0.41577095 0 0 -0.41577095 0 0 -0.41577095 
0 0 -0.41577095 0 0 -0.41577095 0 0 -0.41577095 
0 0 -0.41577095 0 0 -0.41577095 0 0 -0.41577095 
0 0 -0.41577095 0 0 -0.41577095 0 0 -0.41577095 
0 0 -0.41577095 0 0 -0.41577095 0 0 -0.41577095 
0 0 -0.41577095 0 0 -0.41577095 0 0 -0.41577095 
0 0 -0.41577095 0 0 -0.41577095 0 0 -0.41577095 
0 0 -0.41577095 0 0 -0.41577095 0 0 -0.41577095 
0 0 -0.41577095 0 0 -0.41577095 0 0 -0.41577095 
0 0 -0.41577095 0 0 -0.41577095 0 0 -0.41577095 
0 0 -0.41577095 0 0 -0.41577095 0 0 -0.41577095 
0 0 -0.41577095 0 0 -0.41577095 0 0 -0.41577095 
0 0 -0.41577095 0 0 -0.41577095 0 0 -0.41577095 
0 0 -0.41577095 0 0 -0.41577095 0 0 -0.41577095 
0 0 -0.41577095 0 0 -0.41577095 0 0 -0.41577095 
0 0 -0.41577095 0 0 -0.41577095 0 0 -0.41577095 
0 0 -0.41577095 -0.010584200574 -0.13658650108 -0.071651268813 0.025251451726 0.1340855708 -0.0035488631099 