# vtk DataFile Version 5.1
Generated by LIGGGHTS
ASCII
DATASET POLYDATA
POINTS 1000 float
0.0027422 -0.0279134 0.00155623 -3.28077e-05 -0.0273845 0.00197228 0.00187658 -0.0252765 0.00222827 
0.00594651 -0.0160424 0.00149837 0.00215832 -0.013276 0.00149222 0.00500771 -0.0133513 0.00168864 
0.00781112 -0.0138904 0.00152988 0.0165594 -0.0126316 0.00185349 0.021989 -0.012893 0.00148013 
-0.00351639 -0.0121698 0.00163601 0.00246068 -0.0104506 0.00163636 0.00532461 -0.0104989 0.00148972 
0.00818667 -0.0104386 0.00151857 0.0110362 -0.0103739 0.0014816 0.013642 -0.0115354 0.00150099 
0.019301 -0.0119179 0.00155612 0.022938 -0.0103696 0.00242323 -0.0456934 -0.00955386 0.00149789 
-0.0431593 -0.00826591 0.00163122 -0.00635608 -0.00762169 0.00147098 -0.00451035 -0.00959247 0.00235644 
-0.000342085 -0.00991119 0.00150471 0.00388582 -0.00800387 0.001587 0.00672786 -0.00800755 0.00163823 
0.00957008 -0.00791802 0.00150596 0.0123778 -0.00792481 0.00206264 0.0149758 -0.00902202 0.00150558 
0.020323 -0.00929732 0.00195998 0.0254062 -0.00904931 0.001874 0.0282061 -0.00944136 0.00152174 
0.032249 -0.00786842 0.00160586 -0.0455296 -0.00669395 0.00150722 -0.00356089 -0.00702631 0.00150723 
-0.000758983 -0.00714825 0.00206372 0.00805166 -0.00548455 0.00152328 0.0129644 -0.00518925 0.00148619 
0.0155957 -0.00625045 0.00150967 0.0181581 -0.00749804 0.00148625 0.023735 -0.0067445 0.00185276 
0.0271242 -0.00679155 0.00155118 0.0312783 -0.00519062 0.00173486 -0.000877052 -0.00270964 0.00147084 
0.00631714 -0.00320521 0.00150062 0.0111687 -0.00300314 0.00181157 0.0175421 -0.00417465 0.00149737 
0.020232 -0.00376893 0.00230535 0.0229726 -0.00401206 0.00160782 0.0257525 -0.00434212 0.00209867 
0.0285626 -0.00432185 0.0015854 -0.0049153 -0.000452497 0.00206095 -0.00209419 -0.000302321 0.00240338 
0.00405176 -0.00145923 0.00151979 0.00668803 -0.00037191 0.00149386 0.0140091 -0.000162304 0.00199301 
0.0175495 -0.00132817 0.00147249 0.0226264 -0.00117851 0.00163039 0.0348326 -0.00192534 0.00148926 
0.00341932 -0.0155228 0.00268773 0.00563532 -0.0173323 0.00403013 0.00221126 -0.0135364 0.00433766 
0.0063638 -0.0145735 0.00390092 0.00913109 -0.0128898 0.00384296 0.0145853 -0.0133819 0.00376894 
0.000780779 -0.0111165 0.00383269 0.00401451 -0.0113831 0.00384382 0.00706082 -0.011055 0.00454156 
0.0119119 -0.01241 0.00358276 0.0101202 -0.0102392 0.0041695 0.0174208 -0.010015 0.00259643 
0.0182068 -0.0122638 0.0041629 0.0212952 -0.0120012 0.00408446 -0.0476075 -0.00800155 0.00294926 
-0.0449138 -0.0081649 0.00388092 -0.00544062 -0.00759054 0.00416929 -0.00264503 -0.00816133 0.00395272 
0.00260925 -0.00890133 0.00402302 0.013558 -0.00911324 0.00436932 0.0160499 -0.00782425 0.00385965 
0.0188769 -0.00811112 0.00416544 0.0214787 -0.0091956 0.00456801 0.0243196 -0.00897008 0.00450933 
0.0271442 -0.00902885 0.00413986 0.030722 -0.00998767 0.0027538 -0.00742129 -0.00572314 0.00328209 
-0.000330959 -0.00679262 0.00487595 -0.00239123 -0.00534454 0.00352043 0.00283575 -0.0061079 0.00343889 
0.00594193 -0.00690932 0.00415365 0.0136322 -0.00628639 0.00404088 0.0192319 -0.00528046 0.00451011 
0.0211418 -0.00680559 0.00303393 0.024377 -0.00611398 0.00456529 0.0272278 -0.0061774 0.0043291 
0.0296775 -0.00732871 0.00272504 0.03203 -0.0065449 0.00413071 -0.00588586 -0.00343881 0.00404518 
-0.00343664 -0.00280743 0.00272184 -0.0010634 -0.00256447 0.00429457 0.000367284 -0.00471662 0.00306466 
0.00176148 -0.00276522 0.00460662 0.00421047 -0.00359619 0.0033977 0.00865306 -0.00319388 0.00312264 
0.013234 -0.00345589 0.00372095 0.0158617 -0.00453045 0.00377942 0.0180699 -0.0027326 0.00389373 
0.0212464 -0.00330614 0.00493474 0.0240054 -0.00331911 0.00416509 0.0267743 -0.00265305 0.00414698 
0.029739 -0.00483518 0.00412347 0.0305799 -0.00256316 0.002585 -0.00747266 -0.00161174 0.00253429 
0.000671279 -0.000774775 0.00288763 0.00632406 -0.00175665 0.00395566 0.0132589 -0.000230409 0.00475481 
0.0165909 -0.000266729 0.00391373 0.0200426 -0.000972311 0.00282163 0.0286949 -0.000648683 0.00351192 
0.0324622 -0.00116729 0.00423429 0.00410204 -0.0153776 0.00544758 0.00531995 -0.0128399 0.00591646 
0.00813349 -0.0142581 0.00613002 0.0109179 -0.0136399 0.00595727 -0.00294298 -0.010401 0.00727888 
-0.000318569 -0.0122826 0.00619815 0.00238102 -0.0113621 0.00617855 0.0106009 -0.0109662 0.00686999 
0.0133528 -0.0121504 0.00603212 0.0174499 -0.0123806 0.00690445 0.0197177 -0.0108235 0.00613492 
0.0244102 -0.0104445 0.00694982 -0.00518362 -0.00765842 0.00701305 -0.000788882 -0.0095249 0.00562004 
-0.00231608 -0.00762647 0.00709607 0.00168555 -0.00866123 0.00673132 0.00503589 -0.00927246 0.00547646 
0.00897289 -0.00785843 0.00527517 0.0115803 -0.00835401 0.00628761 0.0171063 -0.00996131 0.00542515 
0.0150524 -0.00846386 0.00670329 0.0218107 -0.00934692 0.00739543 0.0244876 -0.00758376 0.00700304 
-0.00438235 -0.00533996 0.00555627 0.0016485 -0.00581139 0.00669813 0.00426291 -0.00521202 0.00573681 
0.00653952 -0.00647761 0.00689771 0.00929914 -0.00606891 0.00748767 0.0115166 -0.00552707 0.00579778 
0.0217358 -0.0060201 0.00569111 0.027258 -0.0068252 0.00711073 -0.00837025 -0.00439108 0.00560191 
-0.00601611 -0.00342118 0.00690379 -0.00362538 -0.00259468 0.00556156 -0.00168463 -0.00460967 0.00617535 
0.00323697 -0.00288433 0.00705319 0.00688479 -0.00435009 0.0050359 0.00948793 -0.00350087 0.00584716 
0.0125436 -0.00293524 0.00641695 0.0146311 -0.00487962 0.00632087 0.0191911 -0.00368862 0.00688521 
0.0232658 -0.00392578 0.00685878 0.0259886 -0.00444164 0.00622822 0.0287776 -0.00439943 0.00678141 
-0.0101915 -0.000483541 0.00680423 -0.00764656 -0.00164395 0.0053844 8.46813e-05 -0.00249113 0.00690345 
0.0065926 -0.000279869 0.00637045 0.0151644 -0.00222751 0.00542437 0.017709 -0.00131648 0.00633933 
0.022592 -0.0012074 0.00631343 0.0271655 -0.00209779 0.00733103 0.030099 -0.00229769 0.00537632 
0.00360083 -0.012984 0.00818621 0.0061398 -0.0140835 0.0088638 0.00890555 -0.0148075 0.00883054 
0.0111378 -0.013021 0.00875008 0.00303552 -0.0102338 0.00871278 0.00550562 -0.01139 0.0095929 
0.00744936 -0.0119017 0.00757382 0.00823644 -0.010634 0.0100064 0.0118264 -0.0102889 0.00935097 
0.0166982 -0.0108062 0.00915865 0.0211155 -0.0119653 0.00833324 -0.0126435 -0.00913204 0.0103471 
-0.00443224 -0.00911184 0.00934861 0.000131858 -0.00908254 0.00909324 0.00614132 -0.00885571 0.00843657 
0.00961235 -0.00876038 0.00834322 0.0130691 -0.00780892 0.00864888 0.0158159 -0.00790603 0.00939702 
0.0193334 -0.00974809 0.00875041 -0.00961341 -0.00502181 0.00915228 -0.00724677 -0.00583573 0.00779063 
-0.0030944 -0.00659953 0.00962802 -0.000571578 -0.00585411 0.00848798 0.00391949 -0.0072128 0.00773484 
0.00649069 -0.00592207 0.00967272 0.0126525 -0.00500615 0.00837013 0.019943 -0.00720571 0.00758159 
0.0224611 -0.00617213 0.00844147 -0.0086278 -0.0026766 0.00785254 -0.00708459 -0.00392451 0.0099096 
-0.00375624 -0.00403382 0.00853932 -0.000532918 -0.00284645 0.00965678 0.00360889 -0.00354142 0.00981463 
0.00745289 -0.00394273 0.00781501 0.0101831 -0.00359754 0.00861706 0.012537 -0.00264333 0.00995746 
0.0165937 -0.00330709 0.00804581 0.0187771 -0.00267825 0.00977151 0.0256148 -0.00381762 0.00900214 
-0.0104329 -0.00126226 0.0095437 -0.00512315 -0.0015118 0.00882326 -0.00242248 -0.0015866 0.00793481 
0.00107263 -0.00063278 0.00883995 0.0055344 -0.00193139 0.00844583 0.0143585 -0.00152233 0.00807491 
0.0169115 -0.000650781 0.00900855 0.0201593 -0.00115613 0.00779946 0.0246279 -0.00123245 0.00831444 
0.0298758 -0.00218279 0.00822122 -0.0206249 -0.012156 0.0101863 0.00421213 -0.0135709 0.0109111 
0.0143685 -0.0100314 0.0106336 0.000862952 -0.00941713 0.0118285 0.00247217 -0.00780579 0.0101107 
0.00780999 -0.00802255 0.0110767 0.0108834 -0.00798776 0.0107683 0.0132257 -0.00809295 0.0124003 
0.0178396 -0.00903621 0.0110728 0.0217854 -0.00991137 0.0101907 -0.000659038 -0.00712922 0.0110375 
0.00221038 -0.00580299 0.0121224 0.00494273 -0.00501279 0.0118704 0.0092493 -0.00567231 0.0103235 
0.0140786 -0.00601645 0.0106356 0.0166477 -0.00654568 0.0117682 0.0190643 -0.00660053 0.0102349 
0.023129 -0.00749005 0.010886 -0.00306011 -0.00428836 0.0112996 -0.000300883 -0.00445668 0.011997 
0.00736059 -0.00364085 0.0111407 0.01017 -0.00322264 0.0114504 0.0174335 -0.00381706 0.0120168 
0.015366 -0.00253987 0.0105177 0.0207875 -0.00485796 0.0117029 0.0234309 -0.00465828 0.0106442 
0.00160441 -0.00239266 0.0114907 0.00501738 -0.00217635 0.011898 0.0074737 -0.000798443 0.0115307 
0.0215845 -0.00249707 0.0103087 0.0122715 -0.00172184 0.0126552 -0.0313194 -0.0204813 0.0228106 
-0.00947453 0.000126858 0.00149568 -0.00754967 0.00204169 0.00238722 -0.0035497 0.00198956 0.00149237 
0.0164307 0.00129656 0.00153246 0.0215533 0.00138985 0.00227056 0.0328327 0.000107362 0.00170274 
0.035572 0.000835422 0.00151274 -0.010123 0.00289908 0.00148692 -0.00563031 0.00395964 0.00148481 
0.0160722 0.00404162 0.00224917 0.0249771 0.00312981 0.00149921 0.0273904 0.00428344 0.00249373 
0.0336479 0.00278104 0.00234109 -0.0119628 0.00726438 0.00199019 -0.00635923 0.00674501 0.00153795 
0.000337215 0.00603186 0.00150953 0.0113579 0.00689861 0.00148942 0.01827 0.00569372 0.00149786 
0.0281536 0.00702024 0.00226507 0.0309028 0.00626692 0.00233111 0.0345412 0.00543835 0.00178167 
-0.00373796 0.00991223 0.00221549 0.00115565 0.00876185 0.00151764 0.0089107 0.00847479 0.00149078 
0.0114272 0.00974706 0.0015774 0.0264562 0.00995788 0.00158771 0.0331778 0.00794315 0.00194043 
-0.0322306 0.0114151 0.00184196 -0.0120469 0.010123 0.00204347 -0.00987322 0.0119096 0.00149908 
-0.00714142 0.01137 0.00216994 -0.00105113 0.01057 0.00146612 0.0035063 0.0102206 0.0021949 
0.00621324 0.0109673 0.0015441 0.00906399 0.0113478 0.00159923 0.0139511 0.0110236 0.00190458 
0.0192026 0.0118467 0.00196432 0.0240557 0.0114338 0.0019955 0.029291 0.0103158 0.0014738 
0.0311042 0.01245 0.00188604 -0.0331295 0.0141003 0.0021924 -0.0115418 0.0141035 0.00226595 
-0.00883089 0.0145737 0.00149664 0.00417935 0.012949 0.00185473 0.00952199 0.0141649 0.00184358 
[...]
POINT_DATA 1000
FIELD FieldData 7
id 1 1000 int
10 24 41 49 266 25 280 297 3 
18 263 22 12 290 285 53 27 83 
29 302 36 282 268 251 277 295 37 
48 21 9 141 23 17 2 16 50 
30 46 15 39 247 43 104 38 33 
7 19 274 309 191 107 235 6 378 
138 164 248 254 1 252 52 262 504 
298 256 535 301 520 56 296 272 40 
51 270 58 306 258 13 45 294 264 
260 32 259 253 28 287 278 31 273 
4 281 305 34 65 304 205 54 47 
303 308 44 8 5 42 289 261 527 
292 279 291 11 35 434 67 14 554 
689 26 267 551 558 761 509 531 555 
544 543 501 533 549 524 525 508 548 
552 526 257 518 521 503 293 534 283 
528 532 286 284 767 507 506 276 255 
510 265 275 300 269 556 307 530 788 
804 529 536 158 299 288 547 807 511 
515 810 773 766 769 787 789 805 774 
782 751 216 768 765 776 755 516 797 
546 784 502 757 522 540 542 517 538 
512 519 794 523 505 764 545 539 557 
513 790 752 792 806 541 648 537 271 
550 514 809 801 20 775 802 781 796 
808 777 795 786 803 778 798 762 553 
758 791 800 763 759 753 783 793 780 
754 772 785 779 756 799 770 760 57 
193 339 102 55 186 136 160 357 199 
161 131 242 218 363 89 429 112 331 
384 425 234 237 69 63 206 130 433 
124 455 227 229 118 243 123 116 211 
238 157 149 169 197 223 175 204 84 
62 155 203 165 80 178 194 183 472 
154 249 179 222 90 127 310 120 87 
332 208 117 226 86 182 110 64 430 
105 159 407 404 75 231 399 174 484 
740 184 77 60 103 195 367 98 236 
360 151 177 143 239 156 487 431 392 
496 190 139 749 401 111 114 233 91 
416 397 323 113 389 482 72 66 685 
393 214 499 209 68 344 413 202 330 
328 380 724 96 232 359 423 94 212 
314 445 119 460 419 313 101 85 122 
73 246 213 189 333 147 99 92 317 
128 210 145 220 241 180 352 448 142 
185 78 79 88 198 150 61 100 408 
166 428 415 490 93 311 163 240 462 
492 570 346 427 471 387 146 59 221 
115 201 385 465 483 394 391 82 126 
245 196 109 106 412 495 379 347 435 
140 436 167 97 364 376 366 315 464 
491 188 341 451 437 422 463 418 402 
390 447 349 170 162 225 176 439 224 
153 334 76 388 168 81 148 459 125 
603 329 640 565 219 370 320 95 134 
192 207 200 679 709 457 369 675 132 
477 383 596 688 698 449 486 468 382 
129 655 642 632 678 732 365 673 900 
666 629 452 450 454 338 362 730 680 
563 335 398 727 912 438 173 172 135 
355 250 358 625 475 626 707 498 152 
70 466 470 396 456 561 343 476 340 
350 692 473 215 405 181 342 622 598 
494 74 480 137 244 368 373 461 646 
411 377 714 337 420 348 230 371 386 
674 409 406 414 481 474 594 395 336 
444 741 467 319 575 318 400 722 620 
322 728 590 560 171 581 702 479 485 
750 618 432 356 668 500 615 592 381 
616 71 564 623 442 879 898 228 426 
372 638 458 922 121 326 353 735 325 
571 567 613 577 663 945 652 441 573 
572 876 974 601 695 469 927 981 992 
967 862 703 417 440 747 645 915 701 
566 847 890 936 744 579 670 569 593 
738 930 589 979 316 656 903 611 591 
726 664 607 453 493 619 718 653 410 
658 609 446 870 606 354 217 108 403 
489 682 654 745 650 955 715 562 361 
421 497 488 617 599 610 624 700 424 
710 723 568 634 748 321 614 327 312 
578 828 660 733 739 585 588 743 996 
933 375 672 691 697 816 586 600 587 
621 144 595 665 597 576 643 651 644 
604 559 818 868 712 716 602 628 639 
662 720 988 734 608 999 708 925 746 
989 696 631 686 681 848 690 635 811 
641 729 693 699 860 853 906 919 612 
574 932 909 704 877 929 958 771 959 
896 633 649 717 961 886 921 984 971 
835 647 684 711 659 731 817 869 840 
837 942 964 882 814 627 843 705 582 
935 871 895 856 855 669 637 924 812 
917 953 657 859 683 584 374 671 324 
345 736 630 914 580 842 954 823 867 
719 742 908 815 824 897 902 583 976 
957 977 713 938 949 478 881 963 836 
721 948 968 826 905 844 694 676 636 
667 834 737 970 857 918 838 725 845 
993 852 889 893 880 944 822 947 987 
865 965 875 687 885 854 829 819 661 
940 952 980 986 827 830 858 978 874 
878 962 821 913 133 861 946 850 939 
928 907 841 997 825 916 941 833 901 
891 931 911 937 985 990 926 975 849 
998 910 813 863 943 888 873 883 677 
866 951 872 969 983 920 706 605 950 
851 846 934 894 1000 960 884 982 995 
956 966 904 973 923 994 831 899 972 
887 820 832 187 991 892 839 443 351 
864 
type 1 1000 int
1 1 1 1 1 1 1 1 1 
1 1 1 1 1 1 1 1 1 
1 1 1 1 1 1 1 1 1 
1 1 1 1 1 1 1 1 1 
1 1 1 1 1 1 1 1 1 
1 1 1 1 1 1 1 1 1 
1 1 1 1 1 1 1 1 1 
1 1 1 1 1 1 1 1 1 
1 1 1 1 1 1 1 1 1 
1 1 1 1 1 1 1 1 1 
1 1 1 1 1 1 1 1 1 
1 1 1 1 1 1 1 1 1 
1 1 1 1 1 1 1 1 1 
1 1 1 1 1 1 1 1 1 
1 1 1 1 1 1 1 1 1 
1 1 1 1 1 1 1 1 1 
1 1 1 1 1 1 1 1 1 
1 1 1 1 1 1 1 1 1 
1 1 1 1 1 1 1 1 1 
1 1 1 1 1 1 1 1 1 
1 1 1 1 1 1 1 1 1 
1 1 1 1 1 1 1 1 1 
1 1 1 1 1 1 1 1 1 
1 1 1 1 1 1 1 1 1 
1 1 1 1 1 1 1 1 1 
1 1 1 1 1 1 1 1 1 
1 1 1 1 1 1 1 1 1 
1 1 1 1 1 1 1 1 1 
1 1 1 1 1 1 1 1 1 
1 1 1 1 1 1 1 1 1 
1 1 1 1 1 1 1 1 1 
1 1 1 1 1 1 1 1 1 
1 1 1 1 1 1 1 1 1 
1 1 1 1 1 1 1 1 1 
1 1 1 1 1 1 1 1 1 
1 1 1 1 1 1 1 1 1 
1 1 1 1 1 1 1 1 1 
1 1 1 1 1 1 1 1 1 
1 1 1 1 1 1 1 1 1 
1 1 1 1 1 1 1 1 1 
1 1 1 1 1 1 1 1 1 
1 1 1 1 1 1 1 1 1 
1 1 1 1 1 1 1 1 1 
1 1 1 1 1 1 1 1 1 
1 1 1 1 1 1 1 1 1 
1 1 1 1 1 1 1 1 1 
1 1 1 1 1 1 1 1 1 
1 1 1 1 1 1 1 1 1 
1 1 1 1 1 1 1 1 1 
1 1 1 1 1 1 1 1 1 
1 1 1 1 1 1 1 1 1 
1 1 1 1 1 1 1 1 1 
1 1 1 1 1 1 1 1 1 
1 1 1 1 1 1 1 1 1 
1 1 1 1 1 1 1 1 1 
1 1 1 1 1 1 1 1 1 
1 1 1 1 1 1 1 1 1 
1 1 1 1 1 1 1 1 1 
1 1 1 1 1 1 1 1 1 
1 1 1 1 1 1 1 1 1 
1 1 1 1 1 1 1 1 1 
1 1 1 1 1 1 1 1 1 
1 1 1 1 1 1 1 1 1 
1 1 1 1 1 1 1 1 1 
1 1 1 1 1 1 1 1 1 
1 1 1 1 1 1 1 1 1 
1 1 1 1 1 1 1 1 1 
1 1 1 1 1 1 1 1 1 
1 1 1 1 1 1 1 1 1 
1 1 1 1 1 1 1 1 1 
1 1 1 1 1 1 1 1 1 
1 1 1 1 1 1 1 1 1 
1 1 1 1 1 1 1 1 1 
1 1 1 1 1 1 1 1 1 
1 1 1 1 1 1 1 1 1 
1 1 1 1 1 1 1 1 1 
1 1 1 1 1 1 1 1 1 
1 1 1 1 1 1 1 1 1 
1 1 1 1 1 1 1 1 1 
1 1 1 1 1 1 1 1 1 
1 1 1 1 1 1 1 1 1 
1 1 1 1 1 1 1 1 1 
1 1 1 1 1 1 1 1 1 
1 1 1 1 1 1 1 1 1 
1 1 1 1 1 1 1 1 1 
1 1 1 1 1 1 1 1 1 
1 1 1 1 1 1 1 1 1 
1 1 1 1 1 1 1 1 1 
1 1 1 1 1 1 1 1 1 
1 1 1 1 1 1 1 1 1 
1 1 1 1 1 1 1 1 1 
1 1 1 1 1 1 1 1 1 
1 1 1 1 1 1 1 1 1 
1 1 1 1 1 1 1 1 1 
1 1 1 1 1 1 1 1 1 
1 1 1 1 1 1 1 1 1 
1 1 1 1 1 1 1 1 1 
1 1 1 1 1 1 1 1 1 
1 1 1 1 1 1 1 1 1 
1 1 1 1 1 1 1 1 1 
1 1 1 1 1 1 1 1 1 
1 1 1 1 1 1 1 1 1 
1 1 1 1 1 1 1 1 1 
1 1 1 1 1 1 1 1 1 
1 1 1 1 1 1 1 1 1 
1 1 1 1 1 1 1 1 1 
1 1 1 1 1 1 1 1 1 
1 1 1 1 1 1 1 1 1 
1 1 1 1 1 1 1 1 1 
1 1 1 1 1 1 1 1 1 
1 1 1 1 1 1 1 1 1 
1 
i 3 1000 int
0 0 0 0 0 0 0 0 0 
0 0 0 0 0 0 0 0 0 
0 0 0 0 0 0 0 0 0 
0 0 0 0 0 0 0 0 0 
0 0 0 0 0 0 0 0 0 
0 0 0 0 0 0 0 0 0 
0 0 0 0 0 0 0 0 0 
0 0 0 0 0 0 0 0 0 
0 0 0 0 0 0 0 0 0 
0 0 0 0 0 0 0 0 0 
0 0 0 0 0 0 0 0 0 
0 0 0 0 0 0 0 0 0 
0 0 0 0 0 0 0 0 0 
0 0 0 0 0 0 0 0 0 
0 0 0 0 0 0 0 0 0 
0 0 0 0 0 0 0 0 0 
0 0 0 0 0 0 0 0 0 
0 0 0 0 0 0 0 0 0 
0 0 0 0 0 0 0 0 0 
0 0 0 0 0 0 0 0 0 
0 0 0 0 0 0 0 0 0 
0 0 0 0 0 0 0 0 0 
0 0 0 0 0 0 0 0 0 
0 0 0 0 0 0 0 0 0 
0 0 0 0 0 0 0 0 0 
0 0 0 0 0 0 0 0 0 
0 0 0 0 0 0 0 0 0 
0 0 0 0 0 0 0 0 0 
0 0 0 0 0 0 0 0 0 
0 0 0 0 0 0 0 0 0 
0 0 0 0 0 0 0 0 0 
0 0 0 0 0 0 0 0 0 
0 0 0 0 0 0 0 0 0 
0 0 0 0 0 0 0 0 0 
0 0 0 0 0 0 0 0 0 
0 0 0 0 0 0 0 0 0 
0 0 0 0 0 0 0 0 0 
0 0 0 0 0 0 0 0 0 
0 0 0 0 0 0 0 0 0 
0 0 0 0 0 0 0 0 0 
0 0 0 0 0 0 0 0 0 
0 0 0 0 0 0 0 0 0 
0 0 0 0 0 0 0 0 0 
0 0 0 0 0 0 0 0 0 
0 0 0 0 0 0 0 0 0 
0 0 0 0 0 0 0 0 0 
0 0 0 0 0 0 0 0 0 
0 0 0 0 0 0 0 0 0 
0 0 0 0 0 0 0 0 0 
0 0 0 0 0 0 0 0 0 
0 0 0 0 0 0 0 0 0 
0 0 0 0 0 0 0 0 0 
0 0 0 0 0 0 0 0 0 
0 0 0 0 0 0 0 0 0 
0 0 0 0 0 0 0 0 0 
0 0 0 0 0 0 0 0 0 
0 0 0 0 0 0 0 0 0 
0 0 0 0 0 0 0 0 0 
0 0 0 0 0 0 0 0 0 
0 0 0 0 0 0 0 0 0 
0 0 0 0 0 0 0 0 0 
0 0 0 0 0 0 0 0 0 
0 0 0 0 0 0 0 0 0 
0 0 0 0 0 0 0 0 0 
0 0 0 0 0 0 0 0 0 
0 0 0 0 0 0 0 0 0 
0 0 0 0 0 0 0 0 0 
0 0 0 0 0 0 0 0 0 
0 0 0 0 0 0 0 0 0 
0 0 0 0 0 0 0 0 0 
0 0 0 0 0 0 0 0 0 
0 0 0 0 0 0 0 0 0 
0 0 0 0 0 0 0 0 0 
0 0 0 0 0 0 0 0 0 
0 0 0 0 0 0 0 0 0 
0 0 0 0 0 0 0 0 0 
0 0 0 0 0 0 0 0 0 
0 0 0 0 0 0 0 0 0 
0 0 0 0 0 0 0 0 0 
0 0 0 0 0 0 0 0 0 
0 0 0 0 0 0 0 0 0 
0 0 0 0 0 0 0 0 0 
0 0 0 0 0 0 0 0 0 
0 0 0 0 0 0 0 0 0 
0 0 0 0 0 0 0 0 0 
0 0 0 0 0 0 0 0 0 
0 0 0 0 0 0 0 0 0 
0 0 0 0 0 0 0 0 0 
0 0 0 0 0 0 0 0 0 
0 0 0 0 0 0 0 0 0 
0 0 0 0 0 0 0 0 0 
0 0 0 0 0 0 0 0 0 
0 0 0 0 0 0 0 0 0 
0 0 0 0 0 0 0 0 0 
0 0 0 0 0 0 0 0 0 
0 0 0 0 0 0 0 0 0 
0 0 0 0 0 0 0 0 0 
0 0 0 0 0 0 0 0 0 
0 0 0 0 0 0 0 0 0 
0 0 0 0 0 0 0 0 0 
0 0 0 0 0 0 0 0 0 
0 0 0 0 0 0 0 0 0 
0 0 0 0 0 0 0 0 0 
0 0 0 0 0 0 0 0 0 
0 0 0 0 0 0 0 0 0 
0 0 0 0 0 0 0 0 0 
0 0 0 0 0 0 0 0 0 
0 0 0 0 0 0 0 0 0 
0 0 0 0 0 0 0 0 0 
0 0 0 0 0 0 0 0 0 
0 0 0 0 0 0 0 0 0 
0 0 0 0 0 0 0 0 0 
0 0 0 0 0 0 0 0 0 
0 0 0 0 0 0 0 0 0 
0 0 0 0 0 0 0 0 0 
0 0 0 0 0 0 0 0 0 
0 0 0 0 0 0 0 0 0 
0 0 0 0 0 0 0 0 0 
0 0 0 0 0 0 0 0 0 
0 0 0 0 0 0 0 0 0 
0 0 0 0 0 0 0 0 0 
0 0 0 0 0 0 0 0 0 
0 0 0 0 0 0 0 0 0 
0 0 0 0 0 0 0 0 0 
0 0 0 0 0 0 0 0 0 
0 0 0 0 0 0 0 0 0 
0 0 0 0 0 0 0 0 0 
0 0 0 0 0 0 0 0 0 
0 0 0 0 0 0 0 0 0 
0 0 0 0 0 0 0 0 0 
0 0 0 0 0 0 0 0 0 
0 0 0 0 0 0 0 0 0 
0 0 0 0 0 0 0 0 0 
0 0 0 0 0 0 0 0 0 
0 0 0 0 0 0 0 0 0 
0 0 0 0 0 0 0 0 0 
0 0 0 0 0 0 0 0 0 
0 0 0 0 0 0 0 0 0 
0 0 0 0 0 0 0 0 0 
0 0 0 0 0 0 0 0 0 
0 0 0 0 0 0 0 0 0 
0 0 0 0 0 0 0 0 0 
0 0 0 0 0 0 0 0 0 
0 0 0 0 0 0 0 0 0 
0 0 0 0 0 0 0 0 0 
0 0 0 0 0 0 0 0 0 
0 0 0 0 0 0 0 0 0 
0 0 0 0 0 0 0 0 0 
0 0 0 0 0 0 0 0 0 
0 0 0 0 0 0 0 0 0 
0 0 0 0 0 0 0 0 0 
0 0 0 0 0 0 0 0 0 
0 0 0 0 0 0 0 0 0 
0 0 0 0 0 0 0 0 0 
0 0 0 0 0 0 0 0 0 
0 0 0 0 0 0 0 0 0 
0 0 0 0 0 0 0 0 0 
0 0 0 0 0 0 0 0 0 
0 0 0 0 0 0 0 0 0 
0 0 0 0 0 0 0 0 0 
0 0 0 0 0 0 0 0 0 
0 0 0 0 0 0 0 0 0 
0 0 0 0 0 0 0 0 0 
0 0 0 0 0 0 0 0 0 
0 0 0 0 0 0 0 0 0 
0 0 0 0 0 0 0 0 0 
0 0 0 0 0 0 0 0 0 
0 0 0 0 0 0 0 0 0 
0 0 0 0 0 0 0 0 0 
0 0 0 0 0 0 0 0 0 
0 0 0 0 0 0 0 0 0 
0 0 0 0 0 0 0 0 0 
0 0 0 0 0 0 0 0 0 
0 0 0 0 0 0 0 0 0 
0 0 0 0 0 0 0 0 0 
0 0 0 0 0 0 0 0 0 
0 0 0 0 0 0 0 0 0 
0 0 0 0 0 0 0 0 0 
0 0 0 0 0 0 0 0 0 
0 0 0 0 0 0 0 0 0 
0 0 0 0 0 0 0 0 0 
0 0 0 0 0 0 0 0 0 
0 0 0 0 0 0 0 0 0 
0 0 0 0 0 0 0 0 0 
0 0 0 0 0 0 0 0 0 
0 0 0 0 0 0 0 0 0 
0 0 0 0 0 0 0 0 0 
0 0 0 0 0 0 0 0 0 
0 0 0 0 0 0 0 0 0 
0 0 0 0 0 0 0 0 0 
0 0 0 0 0 0 0 0 0 
0 0 0 0 0 0 0 0 0 
0 0 0 0 0 0 0 0 0 
0 0 0 0 0 0 0 0 0 
0 0 0 0 0 0 0 0 0 
0 0 0 0 0 0 0 0 0 
0 0 0 0 0 0 0 0 0 
0 0 0 0 0 0 0 0 0 
0 0 0 0 0 0 0 0 0 
0 0 0 0 0 0 0 0 0 
0 0 0 0 0 0 0 0 0 
0 0 0 0 0 0 0 0 0 
0 0 0 0 0 0 0 0 0 
0 0 0 0 0 0 0 0 0 
0 0 0 0 0 0 0 0 0 
0 0 0 0 0 0 0 0 0 
0 0 0 0 0 0 0 0 0 
0 0 0 0 0 0 0 0 0 
0 0 0 0 0 0 0 0 0 
0 0 0 0 0 0 0 0 0 
0 0 0 0 0 0 0 0 0 
0 0 0 0 0 0 0 0 0 
0 0 0 0 0 0 0 0 0 
0 0 0 0 0 0 0 0 0 
0 0 0 0 0 0 0 0 0 
0 0 0 0 0 0 0 0 0 
0 0 0 0 0 0 0 0 0 
0 0 0 0 0 0 0 0 0 
0 0 0 0 0 0 0 0 0 
0 0 0 0 0 0 0 0 0 
0 0 0 0 0 0 0 0 0 
0 0 0 0 0 0 0 0 0 
0 0 0 0 0 0 0 0 0 
0 0 0 0 0 0 0 0 0 
0 0 0 0 0 0 0 0 0 
0 0 0 0 0 0 0 0 0 
0 0 0 0 0 0 0 0 0 
0 0 0 0 0 0 0 0 0 
0 0 0 0 0 0 0 0 0 
0 0 0 0 0 0 0 0 0 
0 0 0 0 0 0 0 0 0 
0 0 0 0 0 0 0 0 0 
0 0 0 0 0 0 0 0 0 
0 0 0 0 0 0 0 0 0 
0 0 0 0 0 0 0 0 0 
0 0 0 0 0 0 0 0 0 
0 0 0 0 0 0 0 0 0 
0 0 0 0 0 0 0 0 0 
0 0 0 0 0 0 0 0 0 
0 0 0 0 0 0 0 0 0 
0 0 0 0 0 0 0 0 0 
0 0 0 0 0 0 0 0 0 
0 0 0 0 0 0 0 0 0 
0 0 0 0 0 0 0 0 0 
0 0 0 0 0 0 0 0 0 
0 0 0 0 0 0 0 0 0 
0 0 0 0 0 0 0 0 0 
0 0 0 0 0 0 0 0 0 
0 0 0 0 0 0 0 0 0 
0 0 0 0 0 0 0 0 0 
0 0 0 0 0 0 0 0 0 
0 0 0 0 0 0 0 0 0 
0 0 0 0 0 0 0 0 0 
0 0 0 0 0 0 0 0 0 
0 0 0 0 0 0 0 0 0 
0 0 0 0 0 0 0 0 0 
0 0 0 0 0 0 0 0 0 
0 0 0 0 0 0 0 0 0 
0 0 0 0 0 0 0 0 0 
0 0 0 0 0 0 0 0 0 
0 0 0 0 0 0 0 0 0 
0 0 0 0 0 0 0 0 0 
0 0 0 0 0 0 0 0 0 
0 0 0 0 0 0 0 0 0 
0 0 0 0 0 0 0 0 0 
0 0 0 0 0 0 0 0 0 
0 0 0 0 0 0 0 0 0 
0 0 0 0 0 0 0 0 0 
0 0 0 0 0 0 0 0 0 
0 0 0 0 0 0 0 0 0 
0 0 0 0 0 0 0 0 0 
0 0 0 0 0 0 0 0 0 
0 0 0 0 0 0 0 0 0 
0 0 0 0 0 0 0 0 0 
0 0 0 0 0 0 0 0 0 
0 0 0 0 0 0 0 0 0 
0 0 0 0 0 0 0 0 0 
0 0 0 0 0 0 0 0 0 
0 0 0 0 0 0 0 0 0 
0 0 0 0 0 0 0 0 0 
0 0 0 0 0 0 0 0 0 
0 0 0 0 0 0 0 0 0 
0 0 0 0 0 0 0 0 0 
0 0 0 0 0 0 0 0 0 
0 0 0 0 0 0 0 0 0 
0 0 0 0 0 0 0 0 0 
0 0 0 0 0 0 0 0 0 
0 0 0 0 0 0 0 0 0 
0 0 0 0 0 0 0 0 0 
0 0 0 0 0 0 0 0 0 
0 0 0 0 0 0 0 0 0 
0 0 0 0 0 0 0 0 0 
0 0 0 0 0 0 0 0 0 
0 0 0 0 0 0 0 0 0 
0 0 0 0 0 0 0 0 0 
0 0 0 0 0 0 0 0 0 
0 0 0 0 0 0 0 0 0 
0 0 0 0 0 0 0 0 0 
0 0 0 0 0 0 0 0 0 
0 0 0 0 0 0 0 0 0 
0 0 0 0 0 0 0 0 0 
0 0 0 0 0 0 0 0 0 
0 0 0 0 0 0 0 0 0 
0 0 0 0 0 0 0 0 0 
0 0 0 0 0 0 0 0 0 
0 0 0 0 0 0 0 0 0 
0 0 0 0 0 0 0 0 0 
0 0 0 0 0 0 0 0 0 
0 0 0 0 0 0 0 0 0 
0 0 0 0 0 0 0 0 0 
0 0 0 0 0 0 0 0 0 
0 0 0 0 0 0 0 0 0 
0 0 0 0 0 0 0 0 0 
0 0 0 0 0 0 0 0 0 
0 0 0 0 0 0 0 0 0 
0 0 0 0 0 0 0 0 0 
0 0 0 0 0 0 0 0 0 
0 0 0 0 0 0 0 0 0 
0 0 0 0 0 0 0 0 0 
0 0 0 0 0 0 0 0 0 
0 0 0 0 0 0 0 0 0 
0 0 0 0 0 0 0 0 0 
0 0 0 0 0 0 0 0 0 
0 0 0 0 0 0 0 0 0 
0 0 0 0 0 0 0 0 0 
0 0 0 0 0 0 0 0 0 
0 0 0 0 0 0 0 0 0 
0 0 0 0 0 0 0 0 0 
0 0 0 0 0 0 0 0 0 
0 0 0 0 0 0 0 0 0 
0 0 0 0 0 0 0 0 0 
0 0 0 0 0 0 0 0 0 
0 0 0 0 0 0 0 0 0 
0 0 0 
v 3 1000 double
0.049161676046 0.42282719376 -0.082005013608 0.0093264089921 0.072540289424 0.050097450536 -0.23646713182 0.29566115388 0.072169169815 
0.0097434745018 0.01422915332 -0.00012288581735 0.01199971584 0.015171446804 0.0015863617071 0.01110043164 0.013031080795 0.00250818136 
0.0075623237913 0.012803861354 0.0011504656944 -0.022290974238 0.037968648648 0.00051415105081 -0.011700621381 0.0021647239696 -0.0027860885749 
-0.033597808497 -0.031535394816 0.0060677982972 0.010009398531 0.0020585368626 0.011926211312 0.0096724051521 0.0027268186414 0.0022342032505 
0.010068598124 0.0017832638436 -0.0068429851464 0.0059310002402 0.0015026037758 0.0073995046265 -0.0060847184966 0.0018220736147 0.0058674222832 
-0.010745745699 0.010897069102 -0.0089842779658 -0.0070827377944 0.0040622125934 -0.0091577114342 0.12231783744 0.032076311933 0.022551197455 
0.14009819311 0.061199993027 -0.08029262203 0.0040877185277 -0.028803152 0.0041615988139 0.018862583681 -0.013120918533 0.026129669702 
0.0064766400763 -0.018217348578 0.015409777326 0.0070819956666 0.00023217780834 0.0089724698742 0.011156779449 0.0010582468882 0.015704255544 
0.0082906011335 0.00023037025114 0.010407281022 -0.00054346517552 0.0028629331286 -0.00056205119507 -0.0039637602228 0.0060526673863 0.0041931539413 
-0.0052754483242 0.0060501389619 -0.003816541071 0.0053305126353 -0.0020111309671 -0.0077546439902 0.017032237626 -0.0045224471996 0.0078840670321 
0.018903975321 -0.021394318546 0.037695024054 0.15601005066 0.0029947033784 -0.068432990054 0.011628643371 -0.024735720737 -0.00044973622507 
-0.0037526481216 -0.020131361994 0.0054363098022 0.0062622392554 -0.0037882872001 0.012930364166 -0.0020265841523 0.0073608993787 0.0006489342936 
-0.0055881101134 0.0056492482495 0.0010049030506 -0.0065593641024 0.0063275141601 -0.0019404399301 0.0060809949219 0.0021854583735 -0.0065061252324 
0.014112286681 -0.0082471781703 -0.0037342939717 0.018670229422 -0.014718038357 0.0083494665094 -0.0007845154809 -0.0097683197799 -0.0018084624442 
-0.00049337105059 -0.00072795856064 -0.0043961632507 -0.0014806939188 0.012499335926 0.005784867333 -0.0029584105117 0.0011691598383 -0.00078520865056 
-0.00023076238627 0.00094552810501 0.00034338473028 0.0020938655092 0.0014128213626 -0.0035606806289 0.008942921848 -0.0044253088883 -0.0090584492151 
0.015744958234 -0.010477710585 -0.0071120443155 9.521356324e-06 -0.013997991419 0.0022628006183 -0.0021269154835 -0.0093375121255 0.0039208992081 
0.00047352874354 0.0076008206535 -0.005062028725 0.0051701901591 0.00070815999944 -0.0048746450937 -0.0020758674678 -0.0034065155125 -0.0088598212222 
-0.00081915124729 0.00075867943722 -0.0031538156774 -0.005024687471 0.0032413931495 -0.0014432185505 -0.049564614139 -0.019464450868 -0.011439735014 
0.0050586519878 0.014273714458 -0.0089185541066 0.0069934936434 0.01176663508 0.0028433745201 0.0033195661187 0.00092648554917 0.0022943727231 
0.0019145549584 0.0079339644043 0.0045629649698 0.0019406773289 0.010414663206 0.0037850098042 -0.0014616068984 0.022131687505 0.0027907047841 
0.0067259537101 -0.0048366276996 0.012530501575 0.0082030799941 -0.0013606148949 0.012811718267 0.0041975674385 0.0043904518565 0.012713712737 
-0.0012247325511 0.005738586244 0.012392176335 -0.0030340103785 0.012304151663 0.010830760735 -0.0026701429954 0.012164567377 -0.0005618541764 
-0.0087525424436 0.0087609920039 -0.0059786823088 -0.0098836682168 0.0066248188769 -0.007641406333 0.24448465012 0.086314756251 0.097202768974 
0.26966139181 0.051907409219 -0.044217157018 -0.0014968473568 -0.00063615784499 0.0089117604327 0.0026095206649 -0.0064137562347 0.014027923468 
0.010558898362 -0.0032799176922 0.012354799675 -0.0038698265658 0.0062072539971 0.0039738736763 -0.0043256480766 0.0082977181194 -1.0210186105e-05 
-0.0016229007726 0.0080529752318 -0.0020107178147 -0.0019175289063 0.0050737237579 -0.0055287721086 -0.0016438247541 0.00022816686293 -0.0076563673294 
-0.001084535176 -0.0045576640335 -0.0015645253932 0.0030469584717 -0.011493686628 0.034816514413 0.011644420871 -0.0086793374385 0.0075179521323 
0.0036776998262 -0.011860332243 -0.00091068893864 0.0021231517763 -0.011542225814 0.00079348595171 0.0046336217476 -0.0029269987703 0.0041224170162 
0.0009118379501 -0.0042009303183 0.013681839226 -0.0043890801757 0.0051216463806 0.0019531965229 0.0012991805001 0.0027917727893 -0.0014101323561 
-0.00022646921609 0.0024735362762 -0.0054291076465 0.0020476541582 -8.026967392e-05 -0.005920234228 0.002720067029 -0.0018626381006 -0.0083720412924 
0.011230313074 -0.0049402547224 0.018323258358 0.007482633835 0.0026305547151 0.022404949509 0.0059472820299 -0.011222048917 0.0083946575135 
0.001173854673 -0.013022884445 0.0017629402289 0.0023709955833 -0.01365382789 -0.0038593472187 0.0032842287683 -0.011642118844 -0.0034605346431 
0.00045123745475 -0.0016452303281 -0.00067797450011 0.00092011037875 0.0029863229463 -0.00092012414335 -0.0012997856002 0.0028841272875 -0.0017451039186 
-0.0037996866652 0.0036710436854 0.0028889045946 -0.0029546304568 0.0040947631427 -0.00072003297794 -0.0024342813495 0.003382136946 -0.0024256761809 
0.0021832235726 0.0015963467982 -0.00079978800443 0.0066513844124 -0.0049539899339 -0.0035359353596 -0.00017179776616 -0.0042213682442 -0.0026805231414 
0.0051207574174 -0.00181640492 -0.0013495826191 0.0022981039848 -0.0054234019744 -0.0059328249257 0.0050132844817 -0.0057175797672 0.0058851666516 
-0.00096180866641 -0.0092929917081 -0.0036426859285 -0.00011221737911 0.0011846630658 -0.0054520078934 -0.0043533119557 -0.00035218130634 -0.0091581238925 
-0.0032497473583 0.0042692909703 -0.0060697689269 -0.0031464865989 -3.4830990991e-05 0.0024257211228 -0.0097653438198 -0.0041606500481 -0.0074396189619 
-0.011931224035 -8.5981551275e-05 -0.0029748995399 -0.0039675135971 0.00067404551441 -0.0050424484217 0.0015563671504 0.001647942591 0.0061448553934 
0.0018724674374 0.0053172120722 0.0055082091869 -0.0074192515 0.011092130795 0.0071997260962 0.01795182261 -0.0043671081485 0.021720020947 
-0.0082050109591 0.018232089328 0.034681131144 0.0028033533919 -0.0033416830811 0.014826899738 -0.0085847498464 0.0076791768194 0.010994831477 
-0.0037498009037 0.0060113381884 0.01077380362 -0.020880644648 0.018145889589 -0.0052939534196 -0.0024733391738 0.0062243200392 -0.003531896116 
0.001662693141 0.0039233843409 -0.0053372965979 -0.0025975701469 -0.0015094323853 0.021937801154 0.0074096439434 -0.0018448196216 0.0092524309406 
-0.0045408868067 -0.0061365935323 0.0035262258814 0.0063118810439 -9.8176570944e-05 0.0064130548386 0.0056103852095 -0.00023462328521 0.015864584725 
-0.0030072064569 0.0082960356478 0.016909790069 5.9106398248e-05 0.0049558710503 0.010863343417 -0.0014878637428 0.0076562091051 -0.0026972916825 
0.00020291620228 -0.0060040846534 0.0081333863478 -0.0020194675938 0.0055121426885 -0.0020752144446 0.0041047017662 -0.0022363781208 -0.0060796650268 
0.0038315607828 -0.0028823669253 0.011088251036 -0.0057496810757 -0.0066250724596 -2.0871174548e-05 0.0018372053168 0.005390523591 0.0063656934321 
-0.00091470742043 0.006464221709 0.015792457851 -0.00029195798045 0.0059673184182 0.010962963944 0.00025251747443 0.004661383937 0.0042913031338 
0.0027439210699 0.00052406403172 -0.0043947647493 0.0061127149969 -0.0088283898658 -0.011567042814 0.014539628254 -0.017370802672 0.016389101393 