# vtk DataFile Version 5.1
Generated by LIGGGHTS
ASCII
DATASET POLYDATA
POINTS 1000 float
0.0149731 -0.0248134 0.00220857 0.00144918 -0.0216591 0.00282143 0.0206365 -0.013917 0.00262511 
0.0091326 -0.00971135 0.00215505 0.0176535 -0.008045 0.00190844 -0.00402875 -0.00697866 0.00172483 
-0.00140911 -0.00585287 0.00157673 0.0114809 -0.00540381 0.00280594 0.0153456 -0.00637041 0.00178272 
0.00734016 -0.004284 0.00161263 0.012031 -0.00288894 0.00157419 0.0163517 -0.00371559 0.00150705 
0.018844 -0.00320064 0.00277299 -0.0113419 -0.00265122 0.00209432 0.0214125 -0.000860799 0.00237192 
0.00419808 -0.0211677 0.00344468 0.00218425 -0.0193796 0.00438371 0.0226395 -0.0123435 0.00392437 
0.00414731 -0.0126759 0.00424912 0.0148686 -0.0111545 0.00213425 0.0186375 -0.0119623 0.00320516 
0.0207576 -0.0102145 0.0039463 -0.00196434 -0.00787314 0.0035041 0.0042167 -0.0102096 0.00282593 
0.00674006 -0.00928917 0.00365943 0.0149467 -0.00776132 0.00424782 0.0167868 -0.00990528 0.00386004 
0.0185291 -0.00776901 0.00462418 0.021085 -0.00745848 0.00335692 -0.000204253 -0.00572255 0.00416461 
0.0129398 -0.00595017 0.00518765 0.0232537 -0.00597954 0.00218828 0.0253963 -0.00639368 0.00404528 
0.028247 -0.00643971 0.00392667 -0.0155794 -0.00434369 0.00211178 -0.00915368 -0.00349949 0.00372053 
0.00742307 -0.00254272 0.0048215 0.0124625 -0.00322751 0.00437344 0.0149757 -0.00445649 0.00388031 
0.0216288 -0.00368169 0.00262824 0.0268271 -0.00413161 0.00301593 0.029058 -0.00382191 0.0047856 
0.0314932 -0.00354967 0.00330595 -0.0159041 -0.0027356 0.00445349 -0.0135947 -0.00144498 0.00336941 
-0.00372074 -0.00139925 0.00463842 -0.0011332 -0.00103287 0.00349649 0.003867 -0.000922487 0.00314711 
0.00647044 -0.00167207 0.00224854 0.00921933 -0.00236359 0.00259591 0.0165041 -0.00205656 0.00385909 
0.0188635 -0.00047338 0.00363117 0.0293445 -0.00107046 0.00551353 0.0303769 -0.000951346 0.0028466 
0.00559782 -0.0137137 0.00648029 0.00661463 -0.0114899 0.00796069 0.0304936 -0.00797718 0.00483317 
-0.00109537 -0.00631774 0.0068189 0.000618889 -0.00408835 0.00636002 0.0250395 -0.00175307 0.0538445 
-0.00137272 -0.00204771 0.00614404 -0.00659381 -0.0164408 0.0110164 0.00457238 -0.0131195 0.00907825 
0.00475761 -0.0101331 0.0105611 0.0125665 -0.0118252 0.0107893 0.00738483 -0.00847299 0.0113469 
0.0204447 -0.00931293 0.0100905 -0.00567764 -0.00574567 0.0100821 0.00455007 -0.00659164 0.0113408 
0.0262047 -0.00694784 0.0101161 0.0126515 -0.00323688 0.010235 0.0243015 -0.00308154 0.0107816 
-0.00767912 -0.00239877 0.0109541 0.00401553 -0.00180714 0.0100185 0.00811285 -0.0126997 0.0120536 
0.00246058 -0.011993 0.0114047 0.0136911 -0.0118027 0.0137119 0.0174812 -0.0114592 0.012507 
0.000241667 -0.00999196 0.0118758 0.00531399 -0.00983203 0.0138728 0.0113803 -0.00766339 0.0127374 
0.0146435 -0.00952342 0.01172 0.0236103 -0.00806766 0.0129953 -0.0143899 -0.00639678 0.017741 
-0.00446412 -0.00705109 0.0133792 -0.000168241 -0.00678797 0.0115353 0.0145403 -0.00500828 0.0123636 
0.0190529 -0.00685491 0.0114733 0.0261811 -0.0060131 0.0137201 -0.00152737 -0.00463245 0.0133924 
0.00164698 -0.00428262 0.0131526 0.00733822 -0.00345531 0.0128781 0.0128955 -0.00290099 0.0138513 
0.0212074 -0.00358288 0.0135255 -0.00267515 -0.00186049 0.0122366 0.0154528 -0.00200362 0.0118638 
0.0191034 -0.00186658 0.0120004 0.0278359 -0.00193898 0.0128055 0.0108557 -0.0130225 0.0154181 
-0.00135593 -0.0102451 0.0155181 0.0031002 -0.0119703 0.0150108 0.00616146 -0.0118096 0.0162833 
0.0214977 -0.010071 0.0158997 0.000932189 -0.00830935 0.0150865 0.016268 -0.00845748 0.0152818 
0.00634106 -0.00624058 0.0149777 0.0198474 -0.00616639 0.016233 -0.00802451 -0.00390219 0.0158056 
-0.00397578 -0.00477323 0.0161672 0.0039497 -0.00372013 0.0157236 0.0113691 -0.0042154 0.0163797 
-0.00508487 -0.00192815 0.014214 0.000871003 -0.00181731 0.0162317 0.0160105 -0.0017709 0.0161808 
0.0236412 -0.00198971 0.0145097 0.017761 -0.0106484 0.0168143 0.0039457 -0.00887507 0.0164073 
0.00883956 -0.00858141 0.0167347 0.0118324 -0.00816733 0.0163891 0.00839743 -0.00282044 0.0164522 
0.0209844 -0.00301942 0.0169869 0.0275825 -0.00486151 0.0170477 0.027952 -0.00174946 0.0164839 
0.0023089 -0.011819 0.0336044 0.0107075 -0.0104178 0.0334901 0.020135 -0.0106972 0.0332323 
-0.00088254 -0.0083535 0.0336356 0.00450799 -0.00875778 0.0338007 -0.00515729 -0.00708521 0.0343116 
0.00252443 -0.00506457 0.0350315 0.00695685 -0.00636324 0.0337291 0.00996765 -0.00560825 0.0332197 
-0.00459424 -0.00310115 0.0344369 0.000269919 -0.00253987 0.0333741 0.00725789 -0.00349915 0.0349837 
0.0139483 -0.00476567 0.0340083 0.0194432 -0.00398836 0.0335576 0.0226114 -0.00453092 0.0342873 
-0.00723867 -0.00161703 0.0334267 0.0293025 -0.00224623 0.0334982 0.0105373 -0.013162 0.036106 
0.0150534 -0.0126471 0.0351328 0.00263912 -0.0118 0.0371541 0.00171744 -0.00900392 0.0358786 
0.00951497 -0.0080642 0.0351069 0.012606 -0.00794626 0.0366867 0.0165476 -0.00889946 0.036362 
0.0216972 -0.00880215 0.0367051 -0.00583245 -0.00628172 0.0372429 0.00668328 -0.0057114 0.0375064 
0.0245803 -0.00726984 0.0356327 -0.00723029 -0.00435769 0.0353193 0.00976868 -0.0038265 0.0372285 
0.017108 -0.00300195 0.0360403 0.0266755 -0.00272967 0.0368659 -0.0020623 -0.0018087 0.0360077 
0.00226019 -0.00241906 0.0371574 0.0137614 -0.00222457 0.0362574 0.0226179 -0.0016597 0.0353877 
0.00968051 -0.0133938 0.0391072 0.00620913 -0.0114518 0.0379474 0.0129948 -0.0124193 0.0380608 
0.0175912 -0.0121567 0.0396849 0.011493 -0.00983807 0.0395996 0.0135313 -0.00754705 0.0397474 
0.0198704 -0.00990055 0.0395954 0.0240832 -0.00862879 0.039157 -0.00237281 -0.00745794 0.0381785 
0.000554968 -0.0052981 0.0384571 0.00378837 -0.00716791 0.0378645 -0.00811056 -0.00275725 0.0378703 
0.0268537 -0.00447958 0.039764 -0.00109251 -0.00203691 0.0389881 0.0160463 -0.00162992 0.0392712 
0.0298767 -0.00217891 0.0379082 -0.000353447 -0.0106154 0.0404002 0.0201626 -0.00670628 0.0403437 
-0.005487 -0.00451522 0.0403861 0.00933726 -0.00412522 0.0402956 0.00414641 -0.00186365 0.0403279 
0.0206692 -0.0022492 0.0403953 0.00349919 -0.0102358 0.0479826 0.00706869 -0.0124446 0.0485228 
0.0219084 -0.00938161 0.0484783 0.0134513 -0.00572242 0.048445 0.01988 -0.00658548 0.0482474 
-0.0055848 -0.00262286 0.0480427 0.00446161 -0.0026273 0.048286 0.00839111 -0.00467737 0.0479581 
0.0285673 -0.0043284 0.0480676 0.019515 -0.00186515 0.0479455 0.0110937 -0.0129354 0.0498828 
-0.00154334 -0.0101732 0.0491295 0.016809 -0.0109745 0.0504617 0.0064568 -0.00768496 0.0488993 
0.011844 -0.00976446 0.0488373 0.0158248 -0.00806689 0.0495199 -0.00705797 -0.00547328 0.0501042 
-0.00367241 -0.00516981 0.0503294 0.00349982 -0.0070736 0.0490318 0.00663578 -0.00522061 0.0512157 
0.0200825 -0.00540089 0.0511874 0.0227121 -0.00706899 0.0507528 0.0271361 -0.00566692 0.0504124 
-0.00978838 -0.002504 0.0498206 -0.000521577 -0.00334463 0.0509282 0.00836173 -0.00282971 0.050349 
0.0112205 -0.00349384 0.049009 0.0245364 -0.00360176 0.0498368 0.0272796 -0.00218533 0.0504443 
0.00654792 -0.0132181 0.0523044 0.0103648 -0.0132939 0.053266 0.0137241 -0.0100998 0.0513451 
-0.00376229 -0.00833338 0.0537064 0.000578021 -0.00905996 0.0525484 0.00600125 -0.00958303 0.051711 
0.00936901 -0.00899664 0.0520156 0.0183862 -0.00838178 0.0513557 0.0216941 -0.00991844 0.0536008 
0.00287227 -0.0062379 0.0527956 0.015608 -0.00627634 0.0521584 -0.00661758 -0.00498749 0.0532649 
-0.00229182 -0.00409767 0.0533763 0.0233522 -0.00458587 0.053334 0.0286865 -0.00314983 0.0536378 
-0.00569476 -0.00203973 0.0519588 0.0150257 -0.00243068 0.0513803 0.0196131 -0.00227081 0.0527059 
0.0041859 -0.0127503 0.0541102 0.00692926 -0.010494 0.0549375 0.00231845 -0.00865902 0.0550139 
0.0103748 -0.00771657 0.0549366 0.0139207 -0.00880097 0.0546009 -0.000430001 -0.00660907 0.0540012 
0.00755183 -0.00643588 0.0545585 0.00639831 -0.00258572 0.0543034 0.0110749 -0.00257683 0.0539215 
0.0161083 -0.00401193 0.0540804 -0.00961872 -0.00207077 0.0541947 0.00163857 -0.00168436 0.0537355 
0.0170787 -1.45768e-05 0.0105951 0.00592033 0.00103974 0.00279768 0.013834 0.000901578 0.0018741 
0.0200524 0.00164491 0.00215488 0.0229015 0.00155859 0.00223982 0.0332433 0.00153074 0.00173294 
0.025468 0.00267039 0.00167179 0.0378729 0.00448111 0.00230911 0.0233966 0.00520084 0.0016514 
0.0262784 0.00970941 0.00240187 0.00271788 0.0120781 0.00249667 0.0234574 0.0113184 0.00163538 
0.0260749 0.0124475 0.00162161 -0.00757676 0.013384 0.00155079 0.001125 0.0144292 0.0028431 
0.00373131 0.0146305 0.00170651 0.0281828 0.0143564 0.00185076 -0.00975392 0.0150387 0.00229034 
0.00324399 0.0173893 0.00228827 0.0233336 0.0170123 0.00193965 0.0260936 0.0162811 0.00197821 
0.024203 0.0197185 0.00169582 0.00440333 0.0221195 0.00174003 0.00309603 0.0246613 0.00155719 
0.0146736 0.0238925 0.00163281 0.0279251 0.022129 0.00146005 0.0111517 0.0269417 0.00225327 
0.0157904 0.0360218 0.00186721 0.0184275 0.0368934 0.00253936 -0.00526072 0.000818824 0.00371859 
-0.00260708 0.00122332 0.00473234 0.0165732 0.000115871 0.00201489 -0.00589186 0.00391676 0.00276433 
-0.00343894 0.00253596 0.00234277 0.021685 0.0038316 0.0034691 0.0331172 0.00318284 0.00406655 
0.0355984 0.00280593 0.0027264 -0.00715319 0.00627666 0.00376854 -0.003362 0.00724546 0.00472736 
-0.000955774 0.0067961 0.00324714 0.000504786 0.00861246 0.00490804 0.00999877 0.00652643 0.00539662 
0.0230139 0.00623583 0.00428124 0.0252925 0.00463196 0.0037268 0.0318072 0.00570861 0.00423678 
-0.0061205 0.00881179 0.00454674 -0.000655401 0.00952118 0.00246009 0.00193558 0.00839878 0.00244432 
0.0096541 0.00838187 0.00329356 0.0124663 0.0079153 0.00344522 0.0273878 0.00990703 0.00503145 
-0.00837993 0.0103853 0.00532088 -0.00692096 0.0110204 0.00295298 -0.0028573 0.0106606 0.00384767 
-0.000488608 0.0121845 0.00352684 0.00446739 0.0103094 0.00391998 0.0114727 0.0105714 0.00316533 
0.0137257 0.0100231 0.00486807 0.0209738 0.0101363 0.00241234 0.0249136 0.0115654 0.00408991 
0.0275964 0.0125613 0.00401924 0.0290103 0.0104325 0.00274264 -0.00840213 0.0130585 0.00430639 
[...]
POINT_DATA 1000
FIELD FieldData 7
id 1 1000 int
18 24 3 12 46 36 17 50 30 
16 38 33 7 51 164 10 41 27 
49 37 53 48 58 25 22 13 56 
45 4 2 31 15 21 9 83 29 
35 8 5 19 39 34 141 23 40 
205 43 235 104 44 42 14 65 247 
1 52 32 28 47 809 54 20 26 
263 290 251 294 302 268 260 300 274 
291 308 280 254 301 297 266 256 295 
285 264 57 270 253 269 273 305 255 
287 265 271 281 276 299 289 309 262 
282 252 267 272 298 257 278 284 259 
293 283 286 304 303 288 261 296 306 
277 258 275 307 292 279 531 520 501 
524 548 549 534 528 532 506 536 545 
517 556 512 529 554 558 504 515 508 
552 526 518 521 502 542 503 507 539 
513 527 541 510 557 547 551 535 544 
543 555 516 546 533 525 522 540 519 
530 505 550 511 509 538 523 553 537 
514 769 789 803 758 800 806 764 783 
788 790 766 761 782 776 774 797 784 
757 796 762 772 763 767 804 753 799 
793 752 807 810 773 802 768 765 787 
755 786 751 798 791 794 759 785 801 
771 754 770 775 805 781 777 795 778 
808 756 760 780 792 779 67 6 55 
186 72 136 66 248 131 130 145 157 
165 227 100 183 80 223 120 222 90 
208 231 77 105 117 151 91 111 191 
107 138 199 102 202 218 160 89 122 
73 246 212 119 242 234 85 118 69 
63 112 92 128 229 237 61 243 206 
189 147 185 78 149 88 204 116 180 
211 238 203 169 178 163 155 146 109 
175 127 110 87 126 245 196 79 86 
182 75 140 97 124 197 106 188 159 
174 168 121 162 184 103 195 114 190 
177 98 236 148 224 153 192 95 139 
239 200 233 207 214 232 209 68 101 
173 213 99 216 215 210 220 123 250 
142 230 93 244 166 62 59 137 84 
226 194 201 64 82 249 179 221 228 
225 219 143 81 176 156 113 129 96 
144 172 198 108 74 150 152 241 154 
240 115 60 134 133 187 158 11 193 
161 94 217 135 181 70 167 71 416 
397 469 132 499 380 423 331 398 384 
433 354 453 493 455 466 352 476 317 
405 497 342 492 428 415 490 409 462 
368 472 427 471 467 385 394 322 444 
436 366 430 447 367 463 418 484 170 
437 353 125 76 325 334 171 459 323 
369 434 383 357 449 378 363 452 359 
429 382 338 314 413 313 333 475 425 
498 470 396 456 448 343 350 473 361 
327 488 408 312 346 387 386 481 465 
332 412 310 379 400 364 376 399 341 
451 458 315 349 326 360 500 370 320 
392 401 487 339 486 457 468 440 417 
482 344 365 330 328 450 316 460 438 
454 355 362 445 374 403 340 311 421 
337 494 373 411 420 348 371 406 391 
377 395 336 319 318 347 435 407 404 
495 485 464 390 442 388 381 402 432 
426 439 372 329 351 441 443 477 393 
389 335 419 489 410 345 358 446 324 
424 321 480 375 478 461 483 414 474 
479 491 356 422 496 431 679 698 703 
695 747 655 678 566 724 670 563 656 
727 593 619 718 625 707 606 682 654 
650 599 624 700 710 723 622 713 742 
714 585 598 743 672 691 586 590 674 
576 728 702 618 604 734 740 560 616 
638 696 574 735 571 613 640 749 648 
649 642 632 685 647 711 645 673 579 
659 738 730 611 607 609 591 584 736 
637 561 562 683 610 721 634 748 715 
578 570 660 739 588 697 722 587 741 
581 595 575 662 644 559 628 750 592 
631 686 564 690 693 652 573 603 577 
709 601 675 689 688 633 701 596 629 
680 589 666 664 569 669 582 653 658 
657 626 677 671 630 580 692 719 605 
617 745 568 583 636 614 706 737 733 
667 665 594 725 600 621 597 643 620 
651 608 602 720 708 615 746 639 681 
623 635 668 729 565 704 663 572 732 
717 731 744 627 684 705 726 646 694 
676 712 687 716 661 641 699 612 567 
876 927 981 992 862 961 915 890 835 
843 901 979 856 924 917 912 859 951 
982 828 902 973 834 970 857 905 893 
988 875 885 818 925 811 989 821 860 
922 929 959 921 967 916 833 837 847 
855 935 871 814 910 813 863 943 870 
883 866 914 867 824 897 976 957 949 
881 963 948 968 933 845 993 852 889 
868 822 987 965 819 947 940 952 986 
858 978 848 906 898 839 878 919 945 
974 886 984 971 907 841 840 900 931 
911 937 864 817 930 964 936 895 812 
953 990 873 954 950 908 846 934 894 
966 977 826 844 904 923 836 816 838 
944 831 865 899 854 827 830 887 874 
879 913 991 850 939 853 861 932 877 
825 896 997 941 869 942 882 891 985 
926 903 975 849 998 872 842 888 851 
969 983 823 955 920 815 1000 960 938 
884 995 956 996 994 829 880 918 820 
980 999 972 832 892 962 946 928 958 
909 
type 1 1000 int
1 1 1 1 1 1 1 1 1 
1 1 1 1 1 1 1 1 1 
1 1 1 1 1 1 1 1 1 
1 1 1 1 1 1 1 1 1 
1 1 1 1 1 1 1 1 1 
1 1 1 1 1 1 1 1 1 
1 1 1 1 1 1 1 1 1 
1 1 1 1 1 1 1 1 1 
1 1 1 1 1 1 1 1 1 
1 1 1 1 1 1 1 1 1 
1 1 1 1 1 1 1 1 1 
1 1 1 1 1 1 1 1 1 
1 1 1 1 1 1 1 1 1 
1 1 1 1 1 1 1 1 1 
1 1 1 1 1 1 1 1 1 
1 1 1 1 1 1 1 1 1 
1 1 1 1 1 1 1 1 1 
1 1 1 1 1 1 1 1 1 
1 1 1 1 1 1 1 1 1 
1 1 1 1 1 1 1 1 1 
1 1 1 1 1 1 1 1 1 
1 1 1 1 1 1 1 1 1 
1 1 1 1 1 1 1 1 1 
1 1 1 1 1 1 1 1 1 
1 1 1 1 1 1 1 1 1 
1 1 1 1 1 1 1 1 1 
1 1 1 1 1 1 1 1 1 
1 1 1 1 1 1 1 1 1 
1 1 1 1 1 1 1 1 1 
1 1 1 1 1 1 1 1 1 
1 1 1 1 1 1 1 1 1 
1 1 1 1 1 1 1 1 1 
1 1 1 1 1 1 1 1 1 
1 1 1 1 1 1 1 1 1 
1 1 1 1 1 1 1 1 1 
1 1 1 1 1 1 1 1 1 
1 1 1 1 1 1 1 1 1 
1 1 1 1 1 1 1 1 1 
1 1 1 1 1 1 1 1 1 
1 1 1 1 1 1 1 1 1 
1 1 1 1 1 1 1 1 1 
1 1 1 1 1 1 1 1 1 
1 1 1 1 1 1 1 1 1 
1 1 1 1 1 1 1 1 1 
1 1 1 1 1 1 1 1 1 
1 1 1 1 1 1 1 1 1 
1 1 1 1 1 1 1 1 1 
1 1 1 1 1 1 1 1 1 
1 1 1 1 1 1 1 1 1 
1 1 1 1 1 1 1 1 1 
1 1 1 1 1 1 1 1 1 
1 1 1 1 1 1 1 1 1 
1 1 1 1 1 1 1 1 1 
1 1 1 1 1 1 1 1 1 
1 1 1 1 1 1 1 1 1 
1 1 1 1 1 1 1 1 1 
1 1 1 1 1 1 1 1 1 
1 1 1 1 1 1 1 1 1 
1 1 1 1 1 1 1 1 1 
1 1 1 1 1 1 1 1 1 
1 1 1 1 1 1 1 1 1 
1 1 1 1 1 1 1 1 1 
1 1 1 1 1 1 1 1 1 
1 1 1 1 1 1 1 1 1 
1 1 1 1 1 1 1 1 1 
1 1 1 1 1 1 1 1 1 
1 1 1 1 1 1 1 1 1 
1 1 1 1 1 1 1 1 1 
1 1 1 1 1 1 1 1 1 
1 1 1 1 1 1 1 1 1 
1 1 1 1 1 1 1 1 1 
1 1 1 1 1 1 1 1 1 
1 1 1 1 1 1 1 1 1 
1 1 1 1 1 1 1 1 1 
1 1 1 1 1 1 1 1 1 
1 1 1 1 1 1 1 1 1 
1 1 1 1 1 1 1 1 1 
1 1 1 1 1 1 1 1 1 
1 1 1 1 1 1 1 1 1 
1 1 1 1 1 1 1 1 1 
1 1 1 1 1 1 1 1 1 
1 1 1 1 1 1 1 1 1 
1 1 1 1 1 1 1 1 1 
1 1 1 1 1 1 1 1 1 
1 1 1 1 1 1 1 1 1 
1 1 1 1 1 1 1 1 1 
1 1 1 1 1 1 1 1 1 
1 1 1 1 1 1 1 1 1 
1 1 1 1 1 1 1 1 1 
1 1 1 1 1 1 1 1 1 
1 1 1 1 1 1 1 1 1 
1 1 1 1 1 1 1 1 1 
1 1 1 1 1 1 1 1 1 
1 1 1 1 1 1 1 1 1 
1 1 1 1 1 1 1 1 1 
1 1 1 1 1 1 1 1 1 
1 1 1 1 1 1 1 1 1 
1 1 1 1 1 1 1 1 1 
1 1 1 1 1 1 1 1 1 
1 1 1 1 1 1 1 1 1 
1 1 1 1 1 1 1 1 1 
1 1 1 1 1 1 1 1 1 
1 1 1 1 1 1 1 1 1 
1 1 1 1 1 1 1 1 1 
1 1 1 1 1 1 1 1 1 
1 1 1 1 1 1 1 1 1 
1 1 1 1 1 1 1 1 1 
1 1 1 1 1 1 1 1 1 
1 1 1 1 1 1 1 1 1 
1 1 1 1 1 1 1 1 1 
1 1 1 1 1 1 1 1 1 
1 
i 3 1000 int
0 0 0 0 0 0 0 0 0 
0 0 0 0 0 0 0 0 0 
0 0 0 0 0 0 0 0 0 
0 0 0 0 0 0 0 0 0 
0 0 0 0 0 0 0 0 0 
0 0 0 0 0 0 0 0 0 
0 0 0 0 0 0 0 0 0 
0 0 0 0 0 0 0 0 0 
0 0 0 0 0 0 0 0 0 
0 0 0 0 0 0 0 0 0 
0 0 0 0 0 0 0 0 0 
0 0 0 0 0 0 0 0 0 
0 0 0 0 0 0 0 0 0 
0 0 0 0 0 0 0 0 0 
0 0 0 0 0 0 0 0 0 
0 0 0 0 0 0 0 0 0 
0 0 0 0 0 0 0 0 0 
0 0 0 0 0 0 0 0 0 
0 0 0 0 0 0 0 0 0 
0 0 0 0 0 0 0 0 0 
0 0 0 0 0 0 0 0 0 
0 0 0 0 0 0 0 0 0 
0 0 0 0 0 0 0 0 0 
0 0 0 0 0 0 0 0 0 
0 0 0 0 0 0 0 0 0 
0 0 0 0 0 0 0 0 0 
0 0 0 0 0 0 0 0 0 
0 0 0 0 0 0 0 0 0 
0 0 0 0 0 0 0 0 0 
0 0 0 0 0 0 0 0 0 
0 0 0 0 0 0 0 0 0 
0 0 0 0 0 0 0 0 0 
0 0 0 0 0 0 0 0 0 
0 0 0 0 0 0 0 0 0 
0 0 0 0 0 0 0 0 0 
0 0 0 0 0 0 0 0 0 
0 0 0 0 0 0 0 0 0 
0 0 0 0 0 0 0 0 0 
0 0 0 0 0 0 0 0 0 
0 0 0 0 0 0 0 0 0 
0 0 0 0 0 0 0 0 0 
0 0 0 0 0 0 0 0 0 
0 0 0 0 0 0 0 0 0 
0 0 0 0 0 0 0 0 0 
0 0 0 0 0 0 0 0 0 
0 0 0 0 0 0 0 0 0 
0 0 0 0 0 0 0 0 0 
0 0 0 0 0 0 0 0 0 
0 0 0 0 0 0 0 0 0 
0 0 0 0 0 0 0 0 0 
0 0 0 0 0 0 0 0 0 
0 0 0 0 0 0 0 0 0 
0 0 0 0 0 0 0 0 0 
0 0 0 0 0 0 0 0 0 
0 0 0 0 0 0 0 0 0 
0 0 0 0 0 0 0 0 0 
0 0 0 0 0 0 0 0 0 
0 0 0 0 0 0 0 0 0 
0 0 0 0 0 0 0 0 0 
0 0 0 0 0 0 0 0 0 
0 0 0 0 0 0 0 0 0 
0 0 0 0 0 0 0 0 0 
0 0 0 0 0 0 0 0 0 
0 0 0 0 0 0 0 0 0 
0 0 0 0 0 0 0 0 0 
0 0 0 0 0 0 0 0 0 
0 0 0 0 0 0 0 0 0 
0 0 0 0 0 0 0 0 0 
0 0 0 0 0 0 0 0 0 
0 0 0 0 0 0 0 0 0 
0 0 0 0 0 0 0 0 0 
0 0 0 0 0 0 0 0 0 
0 0 0 0 0 0 0 0 0 
0 0 0 0 0 0 0 0 0 
0 0 0 0 0 0 0 0 0 
0 0 0 0 0 0 0 0 0 
0 0 0 0 0 0 0 0 0 
0 0 0 0 0 0 0 0 0 
0 0 0 0 0 0 0 0 0 
0 0 0 0 0 0 0 0 0 
0 0 0 0 0 0 0 0 0 
0 0 0 0 0 0 0 0 0 
0 0 0 0 0 0 0 0 0 
0 0 0 0 0 0 0 0 0 
0 0 0 0 0 0 0 0 0 
0 0 0 0 0 0 0 0 0 
0 0 0 0 0 0 0 0 0 
0 0 0 0 0 0 0 0 0 
0 0 0 0 0 0 0 0 0 
0 0 0 0 0 0 0 0 0 
0 0 0 0 0 0 0 0 0 
0 0 0 0 0 0 0 0 0 
0 0 0 0 0 0 0 0 0 
0 0 0 0 0 0 0 0 0 
0 0 0 0 0 0 0 0 0 
0 0 0 0 0 0 0 0 0 
0 0 0 0 0 0 0 0 0 
0 0 0 0 0 0 0 0 0 
0 0 0 0 0 0 0 0 0 
0 0 0 0 0 0 0 0 0 
0 0 0 0 0 0 0 0 0 
0 0 0 0 0 0 0 0 0 
0 0 0 0 0 0 0 0 0 
0 0 0 0 0 0 0 0 0 
0 0 0 0 0 0 0 0 0 
0 0 0 0 0 0 0 0 0 
0 0 0 0 0 0 0 0 0 
0 0 0 0 0 0 0 0 0 
0 0 0 0 0 0 0 0 0 
0 0 0 0 0 0 0 0 0 
0 0 0 0 0 0 0 0 0 
0 0 0 0 0 0 0 0 0 
0 0 0 0 0 0 0 0 0 
0 0 0 0 0 0 0 0 0 
0 0 0 0 0 0 0 0 0 
0 0 0 0 0 0 0 0 0 
0 0 0 0 0 0 0 0 0 
0 0 0 0 0 0 0 0 0 
0 0 0 0 0 0 0 0 0 
0 0 0 0 0 0 0 0 0 
0 0 0 0 0 0 0 0 0 
0 0 0 0 0 0 0 0 0 
0 0 0 0 0 0 0 0 0 
0 0 0 0 0 0 0 0 0 
0 0 0 0 0 0 0 0 0 
0 0 0 0 0 0 0 0 0 
0 0 0 0 0 0 0 0 0 
0 0 0 0 0 0 0 0 0 
0 0 0 0 0 0 0 0 0 
0 0 0 0 0 0 0 0 0 
0 0 0 0 0 0 0 0 0 
0 0 0 0 0 0 0 0 0 
0 0 0 0 0 0 0 0 0 
0 0 0 0 0 0 0 0 0 
0 0 0 0 0 0 0 0 0 
0 0 0 0 0 0 0 0 0 
0 0 0 0 0 0 0 0 0 
0 0 0 0 0 0 0 0 0 
0 0 0 0 0 0 0 0 0 
0 0 0 0 0 0 0 0 0 
0 0 0 0 0 0 0 0 0 
0 0 0 0 0 0 0 0 0 
0 0 0 0 0 0 0 0 0 
0 0 0 0 0 0 0 0 0 
0 0 0 0 0 0 0 0 0 
0 0 0 0 0 0 0 0 0 
0 0 0 0 0 0 0 0 0 
0 0 0 0 0 0 0 0 0 
0 0 0 0 0 0 0 0 0 
0 0 0 0 0 0 0 0 0 
0 0 0 0 0 0 0 0 0 
0 0 0 0 0 0 0 0 0 
0 0 0 0 0 0 0 0 0 
0 0 0 0 0 0 0 0 0 
0 0 0 0 0 0 0 0 0 
0 0 0 0 0 0 0 0 0 
0 0 0 0 0 0 0 0 0 
0 0 0 0 0 0 0 0 0 
0 0 0 0 0 0 0 0 0 
0 0 0 0 0 0 0 0 0 
0 0 0 0 0 0 0 0 0 
0 0 0 0 0 0 0 0 0 
0 0 0 0 0 0 0 0 0 
0 0 0 0 0 0 0 0 0 
0 0 0 0 0 0 0 0 0 
0 0 0 0 0 0 0 0 0 
0 0 0 0 0 0 0 0 0 
0 0 0 0 0 0 0 0 0 
0 0 0 0 0 0 0 0 0 
0 0 0 0 0 0 0 0 0 
0 0 0 0 0 0 0 0 0 
0 0 0 0 0 0 0 0 0 
0 0 0 0 0 0 0 0 0 
0 0 0 0 0 0 0 0 0 
0 0 0 0 0 0 0 0 0 
0 0 0 0 0 0 0 0 0 
0 0 0 0 0 0 0 0 0 
0 0 0 0 0 0 0 0 0 
0 0 0 0 0 0 0 0 0 
0 0 0 0 0 0 0 0 0 
0 0 0 0 0 0 0 0 0 
0 0 0 0 0 0 0 0 0 
0 0 0 0 0 0 0 0 0 
0 0 0 0 0 0 0 0 0 
0 0 0 0 0 0 0 0 0 
0 0 0 0 0 0 0 0 0 
0 0 0 0 0 0 0 0 0 
0 0 0 0 0 0 0 0 0 
0 0 0 0 0 0 0 0 0 
0 0 0 0 0 0 0 0 0 
0 0 0 0 0 0 0 0 0 
0 0 0 0 0 0 0 0 0 
0 0 0 0 0 0 0 0 0 
0 0 0 0 0 0 0 0 0 
0 0 0 0 0 0 0 0 0 
0 0 0 0 0 0 0 0 0 
0 0 0 0 0 0 0 0 0 
0 0 0 0 0 0 0 0 0 
0 0 0 0 0 0 0 0 0 
0 0 0 0 0 0 0 0 0 
0 0 0 0 0 0 0 0 0 
0 0 0 0 0 0 0 0 0 
0 0 0 0 0 0 0 0 0 
0 0 0 0 0 0 0 0 0 
0 0 0 0 0 0 0 0 0 
0 0 0 0 0 0 0 0 0 
0 0 0 0 0 0 0 0 0 
0 0 0 0 0 0 0 0 0 
0 0 0 0 0 0 0 0 0 
0 0 0 0 0 0 0 0 0 
0 0 0 0 0 0 0 0 0 
0 0 0 0 0 0 0 0 0 
0 0 0 0 0 0 0 0 0 
0 0 0 0 0 0 0 0 0 
0 0 0 0 0 0 0 0 0 
0 0 0 0 0 0 0 0 0 
0 0 0 0 0 0 0 0 0 
0 0 0 0 0 0 0 0 0 
0 0 0 0 0 0 0 0 0 
0 0 0 0 0 0 0 0 0 
0 0 0 0 0 0 0 0 0 
0 0 0 0 0 0 0 0 0 
0 0 0 0 0 0 0 0 0 
0 0 0 0 0 0 0 0 0 
0 0 0 0 0 0 0 0 0 
0 0 0 0 0 0 0 0 0 
0 0 0 0 0 0 0 0 0 
0 0 0 0 0 0 0 0 0 
0 0 0 0 0 0 0 0 0 
0 0 0 0 0 0 0 0 0 
0 0 0 0 0 0 0 0 0 
0 0 0 0 0 0 0 0 0 
0 0 0 0 0 0 0 0 0 
0 0 0 0 0 0 0 0 0 
0 0 0 0 0 0 0 0 0 
0 0 0 0 0 0 0 0 0 
0 0 0 0 0 0 0 0 0 
0 0 0 0 0 0 0 0 0 
0 0 0 0 0 0 0 0 0 
0 0 0 0 0 0 0 0 0 
0 0 0 0 0 0 0 0 0 
0 0 0 0 0 0 0 0 0 
0 0 0 0 0 0 0 0 0 
0 0 0 0 0 0 0 0 0 
0 0 0 0 0 0 0 0 0 
0 0 0 0 0 0 0 0 0 
0 0 0 0 0 0 0 0 0 
0 0 0 0 0 0 0 0 0 
0 0 0 0 0 0 0 0 0 
0 0 0 0 0 0 0 0 0 
0 0 0 0 0 0 0 0 0 
0 0 0 0 0 0 0 0 0 
0 0 0 0 0 0 0 0 0 
0 0 0 0 0 0 0 0 0 
0 0 0 0 0 0 0 0 0 
0 0 0 0 0 0 0 0 0 
0 0 0 0 0 0 0 0 0 
0 0 0 0 0 0 0 0 0 
0 0 0 0 0 0 0 0 0 
0 0 0 0 0 0 0 0 0 
0 0 0 0 0 0 0 0 0 
0 0 0 0 0 0 0 0 0 
0 0 0 0 0 0 0 0 0 
0 0 0 0 0 0 0 0 0 
0 0 0 0 0 0 0 0 0 
0 0 0 0 0 0 0 0 0 
0 0 0 0 0 0 0 0 0 
0 0 0 0 0 0 0 0 0 
0 0 0 0 0 0 0 0 0 
0 0 0 0 0 0 0 0 0 
0 0 0 0 0 0 0 0 0 
0 0 0 0 0 0 0 0 0 
0 0 0 0 0 0 0 0 0 
0 0 0 0 0 0 0 0 0 
0 0 0 0 0 0 0 0 0 
0 0 0 0 0 0 0 0 0 
0 0 0 0 0 0 0 0 0 
0 0 0 0 0 0 0 0 0 
0 0 0 0 0 0 0 0 0 
0 0 0 0 0 0 0 0 0 
0 0 0 0 0 0 0 0 0 
0 0 0 0 0 0 0 0 0 
0 0 0 0 0 0 0 0 0 
0 0 0 0 0 0 0 0 0 
0 0 0 0 0 0 0 0 0 
0 0 0 0 0 0 0 0 0 
0 0 0 0 0 0 0 0 0 
0 0 0 0 0 0 0 0 0 
0 0 0 0 0 0 0 0 0 
0 0 0 0 0 0 0 0 0 
0 0 0 0 0 0 0 0 0 
0 0 0 0 0 0 0 0 0 
0 0 0 0 0 0 0 0 0 
0 0 0 0 0 0 0 0 0 
0 0 0 0 0 0 0 0 0 
0 0 0 0 0 0 0 0 0 
0 0 0 0 0 0 0 0 0 
0 0 0 0 0 0 0 0 0 
0 0 0 0 0 0 0 0 0 
0 0 0 0 0 0 0 0 0 
0 0 0 0 0 0 0 0 0 
0 0 0 0 0 0 0 0 0 
0 0 0 0 0 0 0 0 0 
0 0 0 0 0 0 0 0 0 
0 0 0 0 0 0 0 0 0 
0 0 0 0 0 0 0 0 0 
0 0 0 0 0 0 0 0 0 
0 0 0 0 0 0 0 0 0 
0 0 0 0 0 0 0 0 0 
0 0 0 0 0 0 0 0 0 
0 0 0 0 0 0 0 0 0 
0 0 0 0 0 0 0 0 0 
0 0 0 0 0 0 0 0 0 
0 0 0 0 0 0 0 0 0 
0 0 0 0 0 0 0 0 0 
0 0 0 0 0 0 0 0 0 
0 0 0 0 0 0 0 0 0 
0 0 0 0 0 0 0 0 0 
0 0 0 0 0 0 0 0 0 
0 0 0 0 0 0 0 0 0 
0 0 0 0 0 0 0 0 0 
0 0 0 0 0 0 0 0 0 
0 0 0 0 0 0 0 0 0 
0 0 0 0 0 0 0 0 0 
0 0 0 0 0 0 0 0 0 
0 0 0 0 0 0 0 0 0 
0 0 0 0 0 0 0 0 0 
0 0 0 0 0 0 0 0 0 
0 0 0 0 0 0 0 0 0 
0 0 0 0 0 0 0 0 0 
0 0 0 0 0 0 0 0 0 
0 0 0 0 0 0 0 0 0 
0 0 0 0 0 0 0 0 0 
0 0 0 
v 3 1000 double
0.082961598639 -0.58330307265 -0.029955800822 0.065818811627 -0.53743616904 0.19009127719 0.19664931251 0.085790452143 0.039993120767 
0.0084783998692 0.10112545586 0.07071737943 0.12571724439 0.011341057257 0.10120690977 -0.13637941265 0.0052572644775 0.12173750785 
-0.11191475182 -0.037266886495 -0.064274186919 0.036240939832 -0.11265203005 0.17439921657 0.15218911935 0.039507369762 0.053463542481 
0.025059262595 -0.15938051094 -0.056562883903 -0.023542111893 -0.16507782904 0.051684200683 0.12089858526 0.071391938804 0.039273528855 
0.025159807386 0.086362996384 0.19519658823 -0.35851859941 -0.033769188424 0.10474493538 0.034615011553 -0.040433948111 -0.078879292566 
0.011849171882 -0.63040355566 -0.01929104974 0.12254461452 -0.49648793363 0.05613621083 0.09827864528 0.22669983975 0.095792733819 
0.031634784126 -0.16293842543 0.08012084326 0.078733015219 0.29016132426 -0.18611544971 0.039435425226 -0.037697312823 -0.084693075383 
-0.085691395419 0.12810561371 -0.010177398937 -0.056051856321 -0.0025223464954 0.0054680194359 -0.12464646924 -0.25724341032 0.013236136819 
-0.31898162923 0.083073812832 0.10391881496 0.067301078535 -0.00097832069491 0.051008367909 0.045642973545 0.0026986676847 0.0509056282 
0.023782291557 -0.004910319786 0.21971773741 -0.05350040789 0.11566177949 0.058857532782 -0.011806633793 0.0092573536238 -0.10963297714 
0.061467793358 -0.067373070714 0.081182832653 -0.045481732253 -0.00010611990243 -0.1365261127 -0.058255833339 -0.13591020054 -0.079796863844 
-0.078389285397 -0.098635710326 0.043502871582 -0.16121508613 0.15460107017 -0.28346692021 -0.32064883876 -0.037013653411 0.058842202414 
-0.045467634795 0.20510795655 -0.014750981528 0.1225405649 -0.061364071621 0.06633693681 0.091180048943 -0.047084995111 0.0046870166851 
0.051579644729 0.026073285991 -0.015003390261 -0.089885436867 -0.12767787506 -0.065455234272 -0.0058919222112 -0.10468491346 -0.005555616351 
0.0037409401313 -0.21710194658 -0.02225283735 -0.17252774303 -0.35878735057 0.068878507229 -0.50457548054 0.037703214338 -0.18116554012 
-0.093689489254 0.081209642575 0.15797415872 -0.1870775906 0.018326313453 0.065391825041 0.078502063237 -0.16127625387 -0.23866221212 
0.069127523859 -0.032209709226 -0.14119042543 0.045740986169 0.082200499702 0.018928169948 -0.034085648867 0.086519955408 0.098192380637 
0.037748398926 0.10129345689 -0.028347011782 0.28587035924 -0.1390948296 0.12737401198 -0.12873032066 -0.25625038718 -0.039788423311 
0.0013092961857 -0.13953585479 0.12318655552 -0.2368607432 0.0096399112893 0.14173651679 0.15427369445 0.093199870462 -0.10225654785 
-0.24641189885 0.20414557494 -0.15066977031 -0.061559713573 0.068919163831 -0.11948990857 0 0 -0.33729095 
-0.073601259336 0.088677940116 0.10333375233 -0.45110325361 -0.28775223375 0.24021178353 0.04101447626 -0.2594454939 0.19421645887 
0 0 -0.92589095 0 0 -0.92589095 0 0 -0.92589095 
0 0 -0.92589095 0 0 -0.92589095 0 0 -0.92589095 
0 0 -0.92589095 0 0 -0.92589095 0 0 -0.92589095 
0 0 -0.92589095 0 0 -0.92589095 0 0 -0.92589095 
0 0 -0.92589095 0 0 -0.92589095 0 0 -0.92589095 
0 0 -0.92589095 0 0 -0.92589095 0 0 -0.92589095 
0 0 -0.92589095 0 0 -0.92589095 -0.30762627204 -0.22204188241 0.62100712677 
0 0 -0.92589095 0 0 -0.92589095 0 0 -0.92589095 
0 0 -0.92589095 0 0 -0.92589095 0 0 -0.92589095 
0 0 -0.92589095 0 0 -0.92589095 0 0 -0.92589095 
0 0 -0.92589095 0 0 -0.92589095 0.10118217735 -0.20765348632 -0.7519965594 
0.45032884125 -0.4106037891 -0.52593984735 0 0 -0.92589095 0 0 -0.92589095 
0 0 -0.92589095 0 0 -0.92589095 0 0 -0.92589095 
0 0 -0.92589095 0 0 -0.92589095 0 0 -0.92589095 
0 0 -0.92589095 0 0 -0.92589095 0 0 -0.92589095 
0 0 -0.92589095 0 0 -0.92589095 0 0 -0.92589095 
0 0 -0.92589095 0 0 -0.92589095 0 0 -0.92589095 
0 0 -0.92589095 0 0 -0.92589095 0 0 -0.92589095 
0 0 -0.92589095 0 0 -0.92589095 0 0 -0.92589095 
0 0 -0.92589095 0 0 -0.92589095 0 0 -0.92589095 
0 0 -0.63159095 0 0 -0.63159095 0 0 -0.63159095 
0 0 -0.63159095 0 0 -0.63159095 0 0 -0.63159095 
0 0 -0.63159095 0 0 -0.63159095 0 0 -0.63159095 
0 0 -0.63159095 0 0 -0.63159095 0 0 -0.63159095 
0 0 -0.63159095 0 0 -0.63159095 0 0 -0.63159095 
0 0 -0.63159095 0 0 -0.63159095 0 0 -0.63159095 
0 0 -0.63159095 0 0 -0.63159095 0 0 -0.63159095 
0 0 -0.63159095 0 0 -0.63159095 0 0 -0.63159095 
0 0 -0.63159095 0 0 -0.63159095 0 0 -0.63159095 
0 0 -0.63159095 0 0 -0.63159095 0 0 -0.63159095 
0 0 -0.63159095 0 0 -0.63159095 0 0 -0.63159095 
0 0 -0.63159095 0 0 -0.63159095 0 0 -0.63159095 
0 0 -0.63159095 0 0 -0.63159095 0 0 -0.63159095 
0 0 -0.63159095 0 0 -0.63159095 0 0 -0.63159095 
0 0 -0.63159095 0 0 -0.63159095 0 0 -0.63159095 
0 0 -0.63159095 0 0 -0.63159095 0 0 -0.63159095 
0 0 -0.63159095 0 0 -0.63159095 0 0 -0.63159095 
0 0 -0.63159095 0 0 -0.63159095 0 0 -0.63159095 
0 0 -0.63159095 0 0 -0.63159095 0 0 -0.63159095 
0 0 -0.63159095 0 0 -0.33729095 0 0 -0.33729095 
0 0 -0.33729095 0 0 -0.33729095 0 0 -0.33729095 
0 0 -0.33729095 0 0 -0.33729095 0 0 -0.33729095 
0 0 -0.33729095 0 0 -0.33729095 0 0 -0.33729095 
0 0 -0.33729095 0 0 -0.33729095 0 0 -0.33729095 
0 0 -0.33729095 0 0 -0.33729095 0 0 -0.33729095 
0 0 -0.33729095 0 0 -0.33729095 0 0 -0.33729095 
0 0 -0.33729095 0 0 -0.33729095 0 0 -0.33729095 
0 0 -0.33729095 0 0 -0.33729095 0 0 -0.33729095 
0 0 -0.33729095 0 0 -0.33729095 0 0 -0.33729095 
0 0 -0.33729095 0 0 -0.33729095 0 0 -0.33729095 
0 0 -0.33729095 0 0 -0.33729095 0 0 -0.33729095 
0 0 -0.33729095 0 0 -0.33729095 0 0 -0.33729095 
0 0 -0.33729095 0 0 -0.33729095 0 0 -0.33729095 
0 0 -0.33729095 0 0 -0.33729095 0 0 -0.33729095 
0 0 -0.33729095 0 0 -0.33729095 0 0 -0.33729095 
0 0 -0.33729095 0 0 -0.33729095 0 0 -0.33729095 
0 0 -0.33729095 0 0 -0.33729095 0 0 -0.33729095 
0 0 -0.33729095 0 0 -0.33729095 0 0 -0.33729095 
0 0 -0.33729095 0 0 -0.33729095 0 0 -0.33729095 
0.083834538068 0.11939012179 -0.57251754241 0.18095111619 -0.070956028226 0.22564399773 0.12706056798 0.1020696424 -0.033498874853 
0.080014124102 -0.00063292074038 -0.1302205889 0.14924391239 -0.16782289039 -0.025839512984 0.1967432903 -0.18905388444 0.0093040159391 
0.15952534075 -0.099509617543 0.025816585971 0.2147414982 -0.16397673005 0.094868612468 0.16280627208 -0.20701444081 -0.038511347616 
0.065262294322 0.053846228586 0.053283421789 -0.1419919444 0.107383223 0.067849686321 0.07076162608 0.058856550774 0.032227924206 
0.063609660178 0.054273957545 0.038655168748 -0.35327289372 -0.20730559017 -0.096157236098 -0.066860464842 0.14239705598 0.13697598226 
-0.029947381865 0.036621019559 0.037018618895 0.06671643949 0.059837779635 0.045802608959 -0.17349278223 -0.080124031877 0.050489494959 
0.047424242553 0.034617411386 0.029978596591 0.12407031127 0.081410258563 0.0025516194813 0.1052532606 0.049659443136 0.0261063287 
0.14350883854 0.090616791239 0.031863156847 -0.0047143001499 0.062338071467 -0.065749302175 -0.050132317069 0.09849488126 -0.019421624675 
-0.055436876854 -0.24942446996 -0.027752024889 0.079862154885 -0.13435215526 -0.086334145519 0.16062658946 0.11704391154 -0.0061422814227 
0.2831137491 0.37967203661 -0.039580727715 0.25387054854 0.40097620701 0.061770246474 -0.016838643167 0.083384628517 0.11043182051 
0.072849623019 0.003257244245 -0.098511628033 0.015402651577 -0.058915884042 -0.029010714348 0.034231071225 -0.011126276657 0.064690357321 
0.018620003077 -0.14144772278 -0.13623341649 0.25323705597 -0.19491036443 0.044082439842 0.048046180562 -0.11807719275 -0.047095002038 