# vtk DataFile Version 5.1
Generated by LIGGGHTS
ASCII
DATASET POLYDATA
POINTS 1000 float
0.00244222 -0.0372506 0.00247734 0.00435701 -0.0392596 0.00190079 -0.0298996 -0.0270292 0.00276884 
0.00552111 -0.0264074 0.00156762 0.00607216 -0.0160055 0.00152395 0.00227541 -0.0132493 0.00151009 
0.0051236 -0.0133133 0.00171363 0.00793358 -0.0138516 0.00155782 0.0166687 -0.012567 0.0019043 
0.0220886 -0.0127848 0.00148602 0.00255883 -0.0104231 0.00165798 0.005424 -0.0104549 0.00151931 
0.00828065 -0.0103807 0.00154888 0.01113 -0.0103085 0.00149582 0.0137429 -0.0114601 0.00152846 
0.0193998 -0.0118378 0.00159458 0.0230244 -0.0102676 0.00242946 -0.0349279 -0.00783557 0.00161894 
-0.00629427 -0.00763863 0.00149183 -0.00441308 -0.00960085 0.00233875 -0.000250073 -0.00989118 0.00152199 
0.00396543 -0.00796904 0.00160757 0.0068124 -0.00795515 0.0016609 0.00965432 -0.00785617 0.00151875 
0.0124639 -0.00785373 0.00206499 0.0150666 -0.00894862 0.00152054 0.0204053 -0.00921213 0.00197591 
0.0254844 -0.00895315 0.00185635 0.0282892 -0.00935815 0.0015086 0.0323484 -0.00777059 0.00159638 
-0.0377282 -0.00803115 0.00208537 -0.0365041 -0.00546284 0.00170284 -0.00349906 -0.00701413 0.00152802 
-0.000683441 -0.00712756 0.00208055 0.00812538 -0.00543107 0.00154552 0.0130401 -0.00512283 0.00148818 
0.0156771 -0.00617788 0.00152232 0.0182371 -0.00742147 0.00150173 0.0238032 -0.00665196 0.00182703 
0.027203 -0.00669589 0.00149984 0.031355 -0.00507962 0.00167419 -0.000843801 -0.00270899 0.00148686 
0.00638275 -0.00316006 0.00152259 0.011224 -0.00294824 0.00181681 0.0176086 -0.00409607 0.00150664 
0.0202921 -0.00367769 0.00230048 0.0230281 -0.00392118 0.00157567 0.0258245 -0.00424596 0.00203972 
0.0286376 -0.00421805 0.00151882 -0.00490058 -0.000469381 0.00210394 -0.00207215 -0.000302526 0.00241194 
0.00411236 -0.00141838 0.00154136 0.00674839 -0.000327609 0.00151758 0.0140642 -0.000103737 0.00199868 
0.0176025 -0.00125057 0.00147517 0.02267 -0.00108347 0.00159945 0.0347431 -0.00185756 0.00175954 
0.00523841 -0.0366392 0.00256232 0.00354025 -0.0154908 0.00271027 0.00575575 -0.0172924 0.00405298 
0.00231782 -0.0135114 0.00435988 0.00647981 -0.0145297 0.00392226 0.0092365 -0.012826 0.00386736 
0.0146968 -0.0132833 0.0038307 0.000872833 -0.011094 0.0038508 0.00411025 -0.0113457 0.00387001 
0.00715414 -0.0109984 0.00454794 0.0120138 -0.0123279 0.00361269 0.0102086 -0.0101688 0.00418801 
0.0183181 -0.0121739 0.00420494 0.021415 -0.0119026 0.00411554 0.0307937 -0.00984653 0.00282448 
-0.00536963 -0.00761858 0.00418535 -0.00257282 -0.00815859 0.0039585 0.00269162 -0.00887144 0.00404516 
0.0136385 -0.00903849 0.00437733 0.0161309 -0.00774545 0.00387821 0.0175128 -0.00993738 0.00262585 
0.0189628 -0.00801908 0.00418067 0.0215729 -0.00908876 0.00457553 0.0244092 -0.00885475 0.00449753 
0.0272346 -0.00890699 0.00411215 -0.0360312 -0.00693616 0.00409426 -0.0338982 -0.00548345 0.00287428 
-0.00738156 -0.00576144 0.00334146 -0.000270478 -0.00677872 0.00489568 -0.00233434 -0.00534118 0.00353885 
0.00289996 -0.00607486 0.00345601 0.00601355 -0.00685341 0.00417189 0.0137049 -0.00620987 0.00404723 
0.0193119 -0.00518443 0.00451258 0.0212183 -0.00671407 0.00302777 0.0244604 -0.00600292 0.00453371 
0.0273099 -0.00606417 0.00428225 0.0297599 -0.00721686 0.00267698 0.0321067 -0.0064093 0.00408183 
-0.00584968 -0.00346563 0.00409235 -0.00340184 -0.00281413 0.00275097 -0.00102399 -0.00255545 0.00431681 
0.000419892 -0.00469703 0.00308494 0.00180613 -0.0027329 0.00462158 0.00426843 -0.00355525 0.00341461 
0.0087138 -0.00314478 0.00314823 0.0133022 -0.0033799 0.00372064 0.0159299 -0.00445148 0.00378987 
0.0181347 -0.00264616 0.00389798 0.0213224 -0.00319889 0.00491093 0.0240856 -0.00321471 0.00411641 
0.0268532 -0.00254469 0.00408171 0.0298217 -0.00471226 0.00406098 -0.00746173 -0.00163351 0.00260648 
0.000702168 -0.000760373 0.00288161 0.00638258 -0.00171139 0.00397859 0.013315 -0.00016529 0.00475628 
0.0166427 -0.000187243 0.00391596 0.0200983 -0.000886637 0.00282242 0.028758 -0.000535751 0.00343779 
0.0306488 -0.00244588 0.00251052 0.0325367 -0.00102928 0.00412598 0.00422114 -0.0153415 0.00546991 
0.00542489 -0.0127978 0.0059398 0.00824669 -0.0142107 0.00614216 0.011024 -0.0135624 0.00598816 
-0.00284221 -0.0104107 0.00730962 -0.000248063 -0.0122544 0.00620809 0.00246587 -0.011335 0.00620369 
0.0106989 -0.010893 0.00689645 0.0134343 -0.0120216 0.00605877 0.0175799 -0.0122801 0.00695225 
0.0198301 -0.0107162 0.00616529 0.0245281 -0.0103133 0.00694851 -0.00509196 -0.00767562 0.00703782 
-0.000708745 -0.00950721 0.00563543 -0.00224501 -0.00762265 0.00713183 0.00175551 -0.00863244 0.00674916 
0.0051283 -0.00922344 0.00549347 0.00903992 -0.00780216 0.00529455 0.0116596 -0.0082749 0.00629234 
0.0172028 -0.00987463 0.00545324 0.0151403 -0.00837491 0.00671092 0.0219251 -0.00923181 0.00740431 
-0.00432163 -0.00535832 0.00557875 0.00170437 -0.00578785 0.00671828 0.0043177 -0.00516962 0.00575235 
0.00660024 -0.00642292 0.00692 0.00936426 -0.00601223 0.00750594 0.01158 -0.00545541 0.00580384 
0.0218246 -0.00590643 0.00567641 0.0245793 -0.00745611 0.00698201 0.0273578 -0.00670423 0.0070644 
-0.00831405 -0.00443085 0.00568742 -0.00595157 -0.00345541 0.00695161 -0.00358322 -0.00260987 0.00559828 
-0.00163214 -0.00461484 0.00619569 0.00328837 -0.00284839 0.0070671 0.00694351 -0.00429748 0.00505891 
0.00954367 -0.00344278 0.00586777 0.0126051 -0.00285604 0.00642117 0.0146939 -0.00479531 0.00632826 
0.0192786 -0.00358431 0.00688584 0.0233597 -0.00380047 0.00681808 0.0260817 -0.00432455 0.00617734 
0.028873 -0.00427612 0.00672014 -0.0108201 -0.00140166 0.00693277 -0.00760253 -0.00167888 0.00546094 
0.00013297 -0.00247935 0.00692778 0.00664485 -0.000236676 0.00639693 0.0152268 -0.00214744 0.00543072 
0.0177748 -0.00122289 0.00634081 0.0226654 -0.00109034 0.00628837 0.0272672 -0.00198304 0.00726698 
0.0301993 -0.00216865 0.00531333 0.00370183 -0.0129446 0.00822606 0.00624904 -0.0140196 0.00890778 
0.0089411 -0.0142269 0.00984821 0.0112617 -0.0129255 0.00879106 0.0031227 -0.0101895 0.00873218 
0.00560411 -0.0113231 0.0096043 0.00755423 -0.0118619 0.00759292 0.00833104 -0.0105764 0.0100282 
0.0119551 -0.010191 0.00935488 0.016818 -0.010688 0.00918101 -0.00436582 -0.00913818 0.00937217 
0.000198485 -0.00904324 0.00910613 0.00621942 -0.00879844 0.00844302 0.00970604 -0.00869852 0.00836388 
0.013163 -0.0077117 0.00864972 0.0159163 -0.00778168 0.00939155 0.0194511 -0.00963542 0.00877725 
-0.00947123 -0.00508225 0.00928202 -0.0071502 -0.00588304 0.00784423 -0.00302823 -0.00661804 0.00968678 
-0.000513939 -0.00583838 0.0085204 0.00398239 -0.00716522 0.00775554 0.00655537 -0.0058711 0.00969585 
0.0200433 -0.00710082 0.00757988 0.0225557 -0.00602761 0.00842343 -0.00851397 -0.00272449 0.00796939 
-0.00691399 -0.00398734 0.00996001 -0.00370181 -0.00406441 0.00859006 -0.000471258 -0.00284217 0.00968684 
0.00366935 -0.00350519 0.00983064 0.00751154 -0.00388845 0.00783908 0.0102454 -0.00353668 0.00863158 
0.0127226 -0.00492389 0.00837348 0.0126045 -0.00257679 0.0099691 0.0166769 -0.00322068 0.00805287 
0.0188483 -0.00257131 0.00977702 0.0257196 -0.00368229 0.00895411 0.0296515 -0.00245478 0.00877203 
-0.0102453 -0.00129843 0.00973697 -0.00507245 -0.00158989 0.00891353 -0.00237439 -0.00159932 0.00797992 
0.00115586 -0.00064522 0.00886837 0.00558427 -0.00189012 0.00846367 0.0144236 -0.00144474 0.00808227 
0.016973 -0.000561592 0.00902143 0.0202336 -0.00105063 0.00779595 0.0247335 -0.00110346 0.00825661 
0.00433529 -0.01349 0.0109637 0.0203592 -0.0111719 0.0121446 0.0009345 -0.00939395 0.0118377 
0.00253814 -0.00776919 0.0101262 0.00787974 -0.00796624 0.0110946 0.0109822 -0.00791016 0.0107903 
0.0144888 -0.00991222 0.0106491 0.0133517 -0.00797694 0.0124129 0.0179333 -0.0089031 0.0110841 
0.0219127 -0.00977143 0.0102076 -0.000582297 -0.00710745 0.011072 0.00227159 -0.00577272 0.0121495 
0.00931585 -0.00560839 0.0103475 0.0141651 -0.00590625 0.0106308 0.0167367 -0.00642648 0.0117747 
0.0191647 -0.00647292 0.0102299 0.0232466 -0.00733884 0.0108593 -0.00300815 -0.00429251 0.01135 
-0.000241745 -0.00443498 0.0120354 0.0049987 -0.00497104 0.0118889 0.00741775 -0.00358613 0.0111588 
0.0102275 -0.00315249 0.0114595 0.0175176 -0.0037045 0.0120316 0.0208886 -0.00469934 0.0116597 
0.0235494 -0.00451424 0.0106128 -0.030598 -0.00175991 0.00919492 0.00166054 -0.00235557 0.0115057 
0.00506777 -0.00213333 0.0119158 0.00752502 -0.000749356 0.0115484 0.0154405 -0.00245851 0.010524 
0.021239 -0.00191198 0.011181 0.0117161 -0.0014613 0.0131989 -0.039 -0.0241601 0.0360296 
-0.00946474 0.000113509 0.00156492 -0.00753253 0.00203723 0.0024225 -0.00354581 0.00197134 0.00149693 
0.0164742 0.0013667 0.00153027 0.0215944 0.00147773 0.00226384 0.0328699 0.000287215 0.00160644 
-0.0100944 0.00289616 0.00150992 -0.00561669 0.00394641 0.00149775 0.0161192 0.00410802 0.00225743 
0.0250035 0.0032326 0.00148137 0.0274153 0.00439 0.00245112 0.0336819 0.00292285 0.00226902 
-0.0119268 0.00727749 0.00199835 -0.00633312 0.00673641 0.00155416 0.000407666 0.0060171 0.00155725 
0.0114098 0.00694414 0.00149241 0.0183253 0.00577133 0.00152716 0.0281681 0.00713451 0.00223237 
0.0309209 0.00638662 0.00228316 0.0345709 0.00559519 0.00171245 -0.003701 0.0098979 0.00222552 
0.00120139 0.00875439 0.0015414 0.00895767 0.00851013 0.00149554 0.0114681 0.009794 0.00158269 
0.0331778 0.00809008 0.00187335 -0.0120025 0.010133 0.00203994 -0.00982529 0.0119044 0.00149768 
-0.00710056 0.011362 0.00218309 -0.00101752 0.0105543 0.0014701 0.00354286 0.010228 0.00222135 
0.00624964 0.0109861 0.00156349 0.00909838 0.0113838 0.00161045 0.0139899 0.0110788 0.00190783 
0.0192453 0.0119236 0.00198116 0.0240804 0.0115403 0.0020103 0.026474 0.0100674 0.00158584 
0.029307 0.0104233 0.00146818 -0.0142236 0.0147437 0.00178372 -0.0114979 0.0140868 0.00225427 
-0.00877787 0.0145692 0.00150635 0.00420799 0.0129593 0.00187081 0.00954589 0.0142047 0.00186821 
0.0168307 0.013365 0.00148538 0.0212482 0.0139836 0.00203678 0.0240702 0.0143684 0.00173226 
[...]
POINT_DATA 1000
FIELD FieldData 7
id 1 1000 int
41 24 20 18 49 266 25 280 297 
3 263 22 12 290 285 53 27 23 
302 36 282 268 251 277 295 37 48 
21 9 141 29 83 17 2 16 50 
30 46 15 39 247 43 104 38 33 
7 19 274 309 191 107 235 6 378 
138 164 248 10 254 1 252 52 262 
504 298 256 535 301 520 296 272 32 
270 58 306 258 13 56 45 294 264 
260 51 40 259 253 28 287 278 31 
273 4 281 305 34 65 304 205 54 
47 303 308 44 8 5 42 289 261 
527 292 291 11 35 434 67 14 554 
279 689 26 267 551 558 761 509 531 
555 544 543 501 533 549 524 525 508 
548 552 526 257 518 521 293 534 283 
528 532 286 284 503 767 507 506 276 
255 510 265 275 300 269 556 307 530 
788 804 529 536 158 299 288 547 807 
511 515 810 773 766 769 787 789 805 
774 782 768 765 776 755 516 797 546 
784 502 757 522 540 542 538 512 519 
794 523 505 764 545 539 517 557 513 
790 752 801 792 806 541 648 537 271 
550 514 809 775 751 781 796 808 777 
802 795 786 803 778 798 553 758 791 
800 763 759 753 762 783 793 780 772 
785 216 779 756 799 754 770 760 57 
193 339 102 55 186 136 357 199 161 
131 242 218 363 89 429 112 331 384 
425 234 237 69 63 206 433 455 227 
229 118 243 123 116 211 238 157 130 
149 178 223 175 204 84 62 155 203 
165 80 169 194 183 472 154 249 179 
222 90 127 310 120 87 332 117 226 
86 182 110 64 430 105 208 407 404 
75 231 399 174 159 740 184 77 60 
103 195 484 367 98 236 360 151 177 
143 239 156 487 431 392 496 219 190 
139 749 95 401 111 114 233 91 416 
397 323 113 389 482 72 66 685 160 
393 214 499 209 68 344 413 202 330 
328 380 724 96 232 359 423 94 212 
314 445 563 119 460 419 313 101 85 
122 73 213 189 333 147 99 92 317 
128 210 246 145 220 241 180 352 448 
142 185 78 88 198 150 61 100 408 
166 428 415 490 93 311 163 240 462 
492 570 346 427 471 387 146 59 221 
115 201 385 465 483 394 391 82 126 
245 196 109 106 412 495 379 347 435 
140 436 167 97 364 376 79 124 366 
315 464 491 188 341 451 437 197 422 
463 418 402 390 447 349 170 898 162 
225 176 439 224 153 334 76 388 121 
168 81 148 459 125 603 329 640 565 
370 320 134 192 207 200 679 709 457 
369 132 477 383 596 688 698 449 486 
468 382 129 655 675 642 632 678 732 
365 673 666 629 452 450 454 338 730 
680 335 398 727 912 438 173 172 135 
355 362 250 358 625 475 626 707 498 
152 70 466 470 396 456 561 343 476 
340 350 473 215 405 181 342 622 598 
692 494 74 480 137 244 368 373 461 
646 411 377 714 337 420 348 230 371 
386 674 409 406 414 481 474 594 395 
336 444 741 467 319 575 400 722 620 
322 728 590 560 171 581 702 479 318 
485 750 618 432 356 668 500 615 592 
616 71 564 442 228 426 381 372 638 
623 458 922 326 353 735 325 571 567 
613 577 663 945 652 441 573 572 876 
974 601 695 469 927 981 992 967 862 
703 417 440 747 645 915 701 566 847 
890 900 936 744 579 670 569 593 738 
930 589 979 316 656 903 611 591 726 
664 607 453 493 619 718 653 410 658 
609 446 870 606 354 217 108 403 630 
489 682 654 745 650 715 562 361 421 
497 488 617 599 610 624 700 424 710 
723 568 634 748 321 614 327 312 578 
828 660 733 739 585 588 743 933 375 
672 691 697 816 586 600 587 621 595 
665 597 576 643 651 644 559 818 868 
712 716 602 628 639 662 720 988 604 
734 608 999 708 925 746 989 631 686 
681 848 690 635 811 879 696 641 729 
693 699 860 853 906 919 612 574 932 
909 704 877 929 351 771 959 649 717 
961 886 921 984 971 835 647 684 633 
711 659 731 869 840 837 942 882 814 
627 843 705 582 817 935 871 964 895 
856 855 669 637 924 812 917 953 657 
859 683 584 374 671 345 736 914 580 
842 954 823 867 955 719 742 324 908 
815 824 897 902 583 976 957 977 713 
938 949 478 881 963 836 721 948 968 
826 905 694 676 636 996 667 834 737 
970 857 918 838 725 845 993 852 889 
893 880 944 822 947 987 865 965 875 
687 885 854 829 819 661 940 952 980 
986 827 830 858 978 874 878 962 821 
913 133 861 946 850 939 928 958 907 
896 841 997 825 916 833 941 891 931 
911 937 901 985 990 926 975 849 910 
872 813 863 943 888 873 883 677 866 
951 969 983 960 920 706 605 950 846 
934 894 1000 884 982 995 956 966 844 
904 973 923 994 831 899 144 972 887 
820 832 991 892 839 443 998 864 851 
187 
type 1 1000 int
1 1 1 1 1 1 1 1 1 
1 1 1 1 1 1 1 1 1 
1 1 1 1 1 1 1 1 1 
1 1 1 1 1 1 1 1 1 
1 1 1 1 1 1 1 1 1 
1 1 1 1 1 1 1 1 1 
1 1 1 1 1 1 1 1 1 
1 1 1 1 1 1 1 1 1 
1 1 1 1 1 1 1 1 1 
1 1 1 1 1 1 1 1 1 
1 1 1 1 1 1 1 1 1 
1 1 1 1 1 1 1 1 1 
1 1 1 1 1 1 1 1 1 
1 1 1 1 1 1 1 1 1 
1 1 1 1 1 1 1 1 1 
1 1 1 1 1 1 1 1 1 
1 1 1 1 1 1 1 1 1 
1 1 1 1 1 1 1 1 1 
1 1 1 1 1 1 1 1 1 
1 1 1 1 1 1 1 1 1 
1 1 1 1 1 1 1 1 1 
1 1 1 1 1 1 1 1 1 
1 1 1 1 1 1 1 1 1 
1 1 1 1 1 1 1 1 1 
1 1 1 1 1 1 1 1 1 
1 1 1 1 1 1 1 1 1 
1 1 1 1 1 1 1 1 1 
1 1 1 1 1 1 1 1 1 
1 1 1 1 1 1 1 1 1 
1 1 1 1 1 1 1 1 1 
1 1 1 1 1 1 1 1 1 
1 1 1 1 1 1 1 1 1 
1 1 1 1 1 1 1 1 1 
1 1 1 1 1 1 1 1 1 
1 1 1 1 1 1 1 1 1 
1 1 1 1 1 1 1 1 1 
1 1 1 1 1 1 1 1 1 
1 1 1 1 1 1 1 1 1 
1 1 1 1 1 1 1 1 1 
1 1 1 1 1 1 1 1 1 
1 1 1 1 1 1 1 1 1 
1 1 1 1 1 1 1 1 1 
1 1 1 1 1 1 1 1 1 
1 1 1 1 1 1 1 1 1 
1 1 1 1 1 1 1 1 1 
1 1 1 1 1 1 1 1 1 
1 1 1 1 1 1 1 1 1 
1 1 1 1 1 1 1 1 1 
1 1 1 1 1 1 1 1 1 
1 1 1 1 1 1 1 1 1 
1 1 1 1 1 1 1 1 1 
1 1 1 1 1 1 1 1 1 
1 1 1 1 1 1 1 1 1 
1 1 1 1 1 1 1 1 1 
1 1 1 1 1 1 1 1 1 
1 1 1 1 1 1 1 1 1 
1 1 1 1 1 1 1 1 1 
1 1 1 1 1 1 1 1 1 
1 1 1 1 1 1 1 1 1 
1 1 1 1 1 1 1 1 1 
1 1 1 1 1 1 1 1 1 
1 1 1 1 1 1 1 1 1 
1 1 1 1 1 1 1 1 1 
1 1 1 1 1 1 1 1 1 
1 1 1 1 1 1 1 1 1 
1 1 1 1 1 1 1 1 1 
1 1 1 1 1 1 1 1 1 
1 1 1 1 1 1 1 1 1 
1 1 1 1 1 1 1 1 1 
1 1 1 1 1 1 1 1 1 
1 1 1 1 1 1 1 1 1 
1 1 1 1 1 1 1 1 1 
1 1 1 1 1 1 1 1 1 
1 1 1 1 1 1 1 1 1 
1 1 1 1 1 1 1 1 1 
1 1 1 1 1 1 1 1 1 
1 1 1 1 1 1 1 1 1 
1 1 1 1 1 1 1 1 1 
1 1 1 1 1 1 1 1 1 
1 1 1 1 1 1 1 1 1 
1 1 1 1 1 1 1 1 1 
1 1 1 1 1 1 1 1 1 
1 1 1 1 1 1 1 1 1 
1 1 1 1 1 1 1 1 1 
1 1 1 1 1 1 1 1 1 
1 1 1 1 1 1 1 1 1 
1 1 1 1 1 1 1 1 1 
1 1 1 1 1 1 1 1 1 
1 1 1 1 1 1 1 1 1 
1 1 1 1 1 1 1 1 1 
1 1 1 1 1 1 1 1 1 
1 1 1 1 1 1 1 1 1 
1 1 1 1 1 1 1 1 1 
1 1 1 1 1 1 1 1 1 
1 1 1 1 1 1 1 1 1 
1 1 1 1 1 1 1 1 1 
1 1 1 1 1 1 1 1 1 
1 1 1 1 1 1 1 1 1 
1 1 1 1 1 1 1 1 1 
1 1 1 1 1 1 1 1 1 
1 1 1 1 1 1 1 1 1 
1 1 1 1 1 1 1 1 1 
1 1 1 1 1 1 1 1 1 
1 1 1 1 1 1 1 1 1 
1 1 1 1 1 1 1 1 1 
1 1 1 1 1 1 1 1 1 
1 1 1 1 1 1 1 1 1 
1 1 1 1 1 1 1 1 1 
1 1 1 1 1 1 1 1 1 
1 1 1 1 1 1 1 1 1 
1 1 1 1 1 1 1 1 1 
1 
i 3 1000 int
0 0 0 0 0 0 0 0 0 
0 0 0 0 0 0 0 0 0 
0 0 0 0 0 0 0 0 0 
0 0 0 0 0 0 0 0 0 
0 0 0 0 0 0 0 0 0 
0 0 0 0 0 0 0 0 0 
0 0 0 0 0 0 0 0 0 
0 0 0 0 0 0 0 0 0 
0 0 0 0 0 0 0 0 0 
0 0 0 0 0 0 0 0 0 
0 0 0 0 0 0 0 0 0 
0 0 0 0 0 0 0 0 0 
0 0 0 0 0 0 0 0 0 
0 0 0 0 0 0 0 0 0 
0 0 0 0 0 0 0 0 0 
0 0 0 0 0 0 0 0 0 
0 0 0 0 0 0 0 0 0 
0 0 0 0 0 0 0 0 0 
0 0 0 0 0 0 0 0 0 
0 0 0 0 0 0 0 0 0 
0 0 0 0 0 0 0 0 0 
0 0 0 0 0 0 0 0 0 
0 0 0 0 0 0 0 0 0 
0 0 0 0 0 0 0 0 0 
0 0 0 0 0 0 0 0 0 
0 0 0 0 0 0 0 0 0 
0 0 0 0 0 0 0 0 0 
0 0 0 0 0 0 0 0 0 
0 0 0 0 0 0 0 0 0 
0 0 0 0 0 0 0 0 0 
0 0 0 0 0 0 0 0 0 
0 0 0 0 0 0 0 0 0 
0 0 0 0 0 0 0 0 0 
0 0 0 0 0 0 0 0 0 
0 0 0 0 0 0 0 0 0 
0 0 0 0 0 0 0 0 0 
0 0 0 0 0 0 0 0 0 
0 0 0 0 0 0 0 0 0 
0 0 0 0 0 0 0 0 0 
0 0 0 0 0 0 0 0 0 
0 0 0 0 0 0 0 0 0 
0 0 0 0 0 0 0 0 0 
0 0 0 0 0 0 0 0 0 
0 0 0 0 0 0 0 0 0 
0 0 0 0 0 0 0 0 0 
0 0 0 0 0 0 0 0 0 
0 0 0 0 0 0 0 0 0 
0 0 0 0 0 0 0 0 0 
0 0 0 0 0 0 0 0 0 
0 0 0 0 0 0 0 0 0 
0 0 0 0 0 0 0 0 0 
0 0 0 0 0 0 0 0 0 
0 0 0 0 0 0 0 0 0 
0 0 0 0 0 0 0 0 0 
0 0 0 0 0 0 0 0 0 
0 0 0 0 0 0 0 0 0 
0 0 0 0 0 0 0 0 0 
0 0 0 0 0 0 0 0 0 
0 0 0 0 0 0 0 0 0 
0 0 0 0 0 0 0 0 0 
0 0 0 0 0 0 0 0 0 
0 0 0 0 0 0 0 0 0 
0 0 0 0 0 0 0 0 0 
0 0 0 0 0 0 0 0 0 
0 0 0 0 0 0 0 0 0 
0 0 0 0 0 0 0 0 0 
0 0 0 0 0 0 0 0 0 
0 0 0 0 0 0 0 0 0 
0 0 0 0 0 0 0 0 0 
0 0 0 0 0 0 0 0 0 
0 0 0 0 0 0 0 0 0 
0 0 0 0 0 0 0 0 0 
0 0 0 0 0 0 0 0 0 
0 0 0 0 0 0 0 0 0 
0 0 0 0 0 0 0 0 0 
0 0 0 0 0 0 0 0 0 
0 0 0 0 0 0 0 0 0 
0 0 0 0 0 0 0 0 0 
0 0 0 0 0 0 0 0 0 
0 0 0 0 0 0 0 0 0 
0 0 0 0 0 0 0 0 0 
0 0 0 0 0 0 0 0 0 
0 0 0 0 0 0 0 0 0 
0 0 0 0 0 0 0 0 0 
0 0 0 0 0 0 0 0 0 
0 0 0 0 0 0 0 0 0 
0 0 0 0 0 0 0 0 0 
0 0 0 0 0 0 0 0 0 
0 0 0 0 0 0 0 0 0 
0 0 0 0 0 0 0 0 0 
0 0 0 0 0 0 0 0 0 
0 0 0 0 0 0 0 0 0 
0 0 0 0 0 0 0 0 0 
0 0 0 0 0 0 0 0 0 
0 0 0 0 0 0 0 0 0 
0 0 0 0 0 0 0 0 0 
0 0 0 0 0 0 0 0 0 
0 0 0 0 0 0 0 0 0 
0 0 0 0 0 0 0 0 0 
0 0 0 0 0 0 0 0 0 
0 0 0 0 0 0 0 0 0 
0 0 0 0 0 0 0 0 0 
0 0 0 0 0 0 0 0 0 
0 0 0 0 0 0 0 0 0 
0 0 0 0 0 0 0 0 0 
0 0 0 0 0 0 0 0 0 
0 0 0 0 0 0 0 0 0 
0 0 0 0 0 0 0 0 0 
0 0 0 0 0 0 0 0 0 
0 0 0 0 0 0 0 0 0 
0 0 0 0 0 0 0 0 0 
0 0 0 0 0 0 0 0 0 
0 0 0 0 0 0 0 0 0 
0 0 0 0 0 0 0 0 0 
0 0 0 0 0 0 0 0 0 
0 0 0 0 0 0 0 0 0 
0 0 0 0 0 0 0 0 0 
0 0 0 0 0 0 0 0 0 
0 0 0 0 0 0 0 0 0 
0 0 0 0 0 0 0 0 0 
0 0 0 0 0 0 0 0 0 
0 0 0 0 0 0 0 0 0 
0 0 0 0 0 0 0 0 0 
0 0 0 0 0 0 0 0 0 
0 0 0 0 0 0 0 0 0 
0 0 0 0 0 0 0 0 0 
0 0 0 0 0 0 0 0 0 
0 0 0 0 0 0 0 0 0 
0 0 0 0 0 0 0 0 0 
0 0 0 0 0 0 0 0 0 
0 0 0 0 0 0 0 0 0 
0 0 0 0 0 0 0 0 0 
0 0 0 0 0 0 0 0 0 
0 0 0 0 0 0 0 0 0 
0 0 0 0 0 0 0 0 0 
0 0 0 0 0 0 0 0 0 
0 0 0 0 0 0 0 0 0 
0 0 0 0 0 0 0 0 0 
0 0 0 0 0 0 0 0 0 
0 0 0 0 0 0 0 0 0 
0 0 0 0 0 0 0 0 0 
0 0 0 0 0 0 0 0 0 
0 0 0 0 0 0 0 0 0 
0 0 0 0 0 0 0 0 0 
0 0 0 0 0 0 0 0 0 
0 0 0 0 0 0 0 0 0 
0 0 0 0 0 0 0 0 0 
0 0 0 0 0 0 0 0 0 
0 0 0 0 0 0 0 0 0 
0 0 0 0 0 0 0 0 0 
0 0 0 0 0 0 0 0 0 
0 0 0 0 0 0 0 0 0 
0 0 0 0 0 0 0 0 0 
0 0 0 0 0 0 0 0 0 
0 0 0 0 0 0 0 0 0 
0 0 0 0 0 0 0 0 0 
0 0 0 0 0 0 0 0 0 
0 0 0 0 0 0 0 0 0 
0 0 0 0 0 0 0 0 0 
0 0 0 0 0 0 0 0 0 
0 0 0 0 0 0 0 0 0 
0 0 0 0 0 0 0 0 0 
0 0 0 0 0 0 0 0 0 
0 0 0 0 0 0 0 0 0 
0 0 0 0 0 0 0 0 0 
0 0 0 0 0 0 0 0 0 
0 0 0 0 0 0 0 0 0 
0 0 0 0 0 0 0 0 0 
0 0 0 0 0 0 0 0 0 
0 0 0 0 0 0 0 0 0 
0 0 0 0 0 0 0 0 0 
0 0 0 0 0 0 0 0 0 
0 0 0 0 0 0 0 0 0 
0 0 0 0 0 0 0 0 0 
0 0 0 0 0 0 0 0 0 
0 0 0 0 0 0 0 0 0 
0 0 0 0 0 0 0 0 0 
0 0 0 0 0 0 0 0 0 
0 0 0 0 0 0 0 0 0 
0 0 0 0 0 0 0 0 0 
0 0 0 0 0 0 0 0 0 
0 0 0 0 0 0 0 0 0 
0 0 0 0 0 0 0 0 0 
0 0 0 0 0 0 0 0 0 
0 0 0 0 0 0 0 0 0 
0 0 0 0 0 0 0 0 0 
0 0 0 0 0 0 0 0 0 
0 0 0 0 0 0 0 0 0 
0 0 0 0 0 0 0 0 0 
0 0 0 0 0 0 0 0 0 
0 0 0 0 0 0 0 0 0 
0 0 0 0 0 0 0 0 0 
0 0 0 0 0 0 0 0 0 
0 0 0 0 0 0 0 0 0 
0 0 0 0 0 0 0 0 0 
0 0 0 0 0 0 0 0 0 
0 0 0 0 0 0 0 0 0 
0 0 0 0 0 0 0 0 0 
0 0 0 0 0 0 0 0 0 
0 0 0 0 0 0 0 0 0 
0 0 0 0 0 0 0 0 0 
0 0 0 0 0 0 0 0 0 
0 0 0 0 0 0 0 0 0 
0 0 0 0 0 0 0 0 0 
0 0 0 0 0 0 0 0 0 
0 0 0 0 0 0 0 0 0 
0 0 0 0 0 0 0 0 0 
0 0 0 0 0 0 0 0 0 
0 0 0 0 0 0 0 0 0 
0 0 0 0 0 0 0 0 0 
0 0 0 0 0 0 0 0 0 
0 0 0 0 0 0 0 0 0 
0 0 0 0 0 0 0 0 0 
0 0 0 0 0 0 0 0 0 
0 0 0 0 0 0 0 0 0 
0 0 0 0 0 0 0 0 0 
0 0 0 0 0 0 0 0 0 
0 0 0 0 0 0 0 0 0 
0 0 0 0 0 0 0 0 0 
0 0 0 0 0 0 0 0 0 
0 0 0 0 0 0 0 0 0 
0 0 0 0 0 0 0 0 0 
0 0 0 0 0 0 0 0 0 
0 0 0 0 0 0 0 0 0 
0 0 0 0 0 0 0 0 0 
0 0 0 0 0 0 0 0 0 
0 0 0 0 0 0 0 0 0 
0 0 0 0 0 0 0 0 0 
0 0 0 0 0 0 0 0 0 
0 0 0 0 0 0 0 0 0 
0 0 0 0 0 0 0 0 0 
0 0 0 0 0 0 0 0 0 
0 0 0 0 0 0 0 0 0 
0 0 0 0 0 0 0 0 0 
0 0 0 0 0 0 0 0 0 
0 0 0 0 0 0 0 0 0 
0 0 0 0 0 0 0 0 0 
0 0 0 0 0 0 0 0 0 
0 0 0 0 0 0 0 0 0 
0 0 0 0 0 0 0 0 0 
0 0 0 0 0 0 0 0 0 
0 0 0 0 0 0 0 0 0 
0 0 0 0 0 0 0 0 0 
0 0 0 0 0 0 0 0 0 
0 0 0 0 0 0 0 0 0 
0 0 0 0 0 0 0 0 0 
0 0 0 0 0 0 0 0 0 
0 0 0 0 0 0 0 0 0 
0 0 0 0 0 0 0 0 0 
0 0 0 0 0 0 0 0 0 
0 0 0 0 0 0 0 0 0 
0 0 0 0 0 0 0 0 0 
0 0 0 0 0 0 0 0 0 
0 0 0 0 0 0 0 0 0 
0 0 0 0 0 0 0 0 0 
0 0 0 0 0 0 0 0 0 
0 0 0 0 0 0 0 0 0 
0 0 0 0 0 0 0 0 0 
0 0 0 0 0 0 0 0 0 
0 0 0 0 0 0 0 0 0 
0 0 0 0 0 0 0 0 0 
0 0 0 0 0 0 0 0 0 
0 0 0 0 0 0 0 0 0 
0 0 0 0 0 0 0 0 0 
0 0 0 0 0 0 0 0 0 
0 0 0 0 0 0 0 0 0 
0 0 0 0 0 0 0 0 0 
0 0 0 0 0 0 0 0 0 
0 0 0 0 0 0 0 0 0 
0 0 0 0 0 0 0 0 0 
0 0 0 0 0 0 0 0 0 
0 0 0 0 0 0 0 0 0 
0 0 0 0 0 0 0 0 0 
0 0 0 0 0 0 0 0 0 
0 0 0 0 0 0 0 0 0 
0 0 0 0 0 0 0 0 0 
0 0 0 0 0 0 0 0 0 
0 0 0 0 0 0 0 0 0 
0 0 0 0 0 0 0 0 0 
0 0 0 0 0 0 0 0 0 
0 0 0 0 0 0 0 0 0 
0 0 0 0 0 0 0 0 0 
0 0 0 0 0 0 0 0 0 
0 0 0 0 0 0 0 0 0 
0 0 0 0 0 0 0 0 0 
0 0 0 0 0 0 0 0 0 
0 0 0 0 0 0 0 0 0 
0 0 0 0 0 0 0 0 0 
0 0 0 0 0 0 0 0 0 
0 0 0 0 0 0 0 0 0 
0 0 0 0 0 0 0 0 0 
0 0 0 0 0 0 0 0 0 
0 0 0 0 0 0 0 0 0 
0 0 0 0 0 0 0 0 0 
0 0 0 0 0 0 0 0 0 
0 0 0 0 0 0 0 0 0 
0 0 0 0 0 0 0 0 0 
0 0 0 0 0 0 0 0 0 
0 0 0 0 0 0 0 0 0 
0 0 0 0 0 0 0 0 0 
0 0 0 0 0 0 0 0 0 
0 0 0 0 0 0 0 0 0 
0 0 0 0 0 0 0 0 0 
0 0 0 0 0 0 0 0 0 
0 0 0 0 0 0 0 0 0 
0 0 0 0 0 0 0 0 0 
0 0 0 0 0 0 0 0 0 
0 0 0 0 0 0 0 0 0 
0 0 0 0 0 0 0 0 0 
0 0 0 0 0 0 0 0 0 
0 0 0 0 0 0 0 0 0 
0 0 0 0 0 0 0 0 0 
0 0 0 0 0 0 0 0 0 
0 0 0 0 0 0 0 0 0 
0 0 0 0 0 0 0 0 0 
0 0 0 0 0 0 0 0 0 
0 0 0 0 0 0 0 0 0 
0 0 0 0 0 0 0 0 0 
0 0 0 0 0 0 0 0 0 
0 0 0 0 0 0 0 0 0 
0 0 0 0 0 0 0 0 0 
0 0 0 0 0 0 0 0 0 
0 0 0 0 0 0 0 0 0 
0 0 0 0 0 0 0 0 0 
0 0 0 0 0 0 0 0 0 
0 0 0 0 0 0 0 0 0 
0 0 0 0 0 0 0 0 0 
0 0 0 0 0 0 0 0 0 
0 0 0 0 0 0 0 0 0 
0 0 0 0 0 0 0 0 0 
0 0 0 0 0 0 0 0 0 
0 0 0 0 0 0 0 0 0 
0 0 0 0 0 0 0 0 0 
0 0 0 
v 3 1000 double
0.096595044067 0.14555956802 0.10953878851 0.11410263053 0.24948085649 0.088351165985 0.23186686891 0.37182868637 0.3816376406 
-0.26974575825 0.42634601397 -0.033896001085 -0.011144083775 0.013380749109 -0.022203092959 -0.01575660016 0.014386769345 0.0057760491499 
-0.00659961138 0.0092486335026 0.0051735029504 -0.0011678564785 -0.024440462668 0.0085963618702 -0.0093945519134 -0.0024000740001 -0.016446426832 
-0.028053279859 -0.045143529772 0.01666236205 -0.0045916851534 -0.013321863224 0.0082220335295 0.010312623901 -0.025083588508 0.018706251782 
0.0249428887 -0.013600723001 0.01430794951 0.0083090710342 -0.00070230697134 0.00076589352038 -0.0084232362302 -0.011330145142 -0.014978015764 
-0.0049247516822 0.00012874565538 -0.023576505912 0.0058828944956 -0.014761136077 -0.025244925466 -0.188515463 -0.037401942977 0.020461828956 
0.0019751585498 0.013563775888 0.0065424711356 0.026203377403 0.020811475677 -0.016094277219 -0.01550099671 -0.01924241772 0.022344272095 
0.011713514391 -0.020016573062 -0.0075312687959 0.012499390245 -0.023370391519 0.0093956146503 0.011926697161 -0.0074691706272 0.030569041832 
0.013744108707 -0.0082443854039 0.016606947328 -0.00038646084874 -0.0033686144838 -0.010555055379 -0.0053420068279 -0.013018717678 -0.034537271006 
0.013715203468 -0.0035533255669 -0.03894841004 0.040995574376 0.0061012255579 0.00021384769357 -0.036341208035 0.004338371073 -0.018113264712 
-0.1588887199 -0.20988662146 -0.075530977946 -0.31941917233 -0.11935614413 -0.17020157164 0.0023925543696 0.030008743868 0.03135415325 
-0.0083664873846 -0.006429965297 0.010899239971 0.0079648497482 -0.019022224386 0.024553959566 0.00014205778399 -0.0053478440143 0.010382998295 
0.002418394566 -0.0002654549142 -5.7788927459e-05 -0.011690630898 -0.004394036074 -0.026486773636 -0.0015208525102 0.0051963780918 -0.038830240001 
0.00071577826345 -0.004648949799 -0.027486231608 -0.031870134566 0.021644120685 -0.048917000244 -0.0050879370142 -0.0043273098195 0.0046171433024 
-0.0049922738163 -0.01259572743 0.0099183279605 -0.0075618983322 -0.028364356022 0.011762619026 -0.0052132094078 0.002385677185 0.0021098225637 
-0.0011914513653 0.012912877252 -0.0074737569259 -0.002351369679 0.015337440327 -0.012287425051 -0.015125328492 -0.012313607865 -0.0090991698537 
-0.040477140026 0.0029336239067 -0.0312844132 -0.007883077381 -0.0002073354777 0.010849732764 -0.0049024034355 0.0010716335268 -0.0040351202628 
-0.0058366838445 -0.015564754916 0.010334861296 -0.016364280393 -0.018381741885 0.016771906914 -0.0098572078936 0.0037472888873 0.001024616689 
-0.015033379902 0.0014865749976 -5.2286959043e-05 -0.0036002464794 0.00043773123045 0.015225619581 0.026200505838 0.04514376233 0.001717294569 
-0.39659449606 0.43418829047 -0.038518758743 -0.020276300697 0.0041258720829 -0.024474680994 -0.016942523067 -0.02017735008 -0.071766956582 
-0.013783116632 -0.009999257185 0.0061894505648 -0.014679783632 -0.02236906522 -0.0062135479974 -0.0036755817225 -0.027129957848 0.0096374200289 
0.007999730709 0.014213451119 0.0059924864138 -0.003231182456 -0.0029274408326 0.021153705308 -0.0061639298455 -0.01437093614 0.012100150226 
-0.0014490401818 -0.026778621243 0.028440602078 -0.0051779040571 -0.011454031326 0.0017447472228 0.00017719855453 -0.00037999202726 -0.0037479582777 
0.0048098760747 0.00075845605308 -0.021483737304 -0.029016610091 0.010709928919 -0.01309808409 0.021491176732 0.017101124618 0.070226206185 
-0.012177064841 -0.010439129388 0.015648196373 -0.0029316645934 0.002460777504 0.010270310981 0.0027490369505 -0.0080396515329 0.0005352714327 
0.040797867566 0.0039406173771 0.0078606895033 0.01692199012 0.00090056090092 -0.0093641141468 -0.001992410163 -0.0043479994739 -0.022140843509 
0.0060813251803 -0.0064199130726 -0.032091507621 0.0011708905022 0.0071711511473 -0.035334574026 -0.0026779503898 0.0088497096193 -0.042250028027 
-0.0026687740003 0.010734823166 -0.016589451174 -0.32885623856 0.058741217543 -0.067249246401 -0.35981093985 0.10378178442 -0.11770232239 
-0.0073045537561 -0.0030693124572 0.019670914393 4.5415316973e-05 -0.0076587472441 0.011642996066 0.0023157332784 -0.0011514031116 0.015437882926 
0.0035710730294 -0.0071339946818 0.00093955669169 0.010460634164 -0.019092660029 0.010179885149 0.016731472398 0.0021284071006 0.0046905522408 
0.00090415166404 -0.012678796702 -0.014157444084 0.007148492135 -0.0063080660955 -0.024470739736 0.0043200488306 0.0033658028521 -0.018489644075 
-0.0063936550597 0.011232735254 -0.028203491568 -0.010636075303 0.024036924782 -0.0087817408253 -0.0094029117686 0.053245164004 -0.042152776059 
0.0021902013878 -0.0084511872794 0.004771673809 -0.0037763643808 0.00078315491848 0.0077112579352 -0.0074858938067 0.0031110566704 0.007561914274 
1.4886971856e-05 -0.00165635537 0.0094947911229 -0.0094087408707 -0.0074521914995 0.012926908911 -0.0029141667148 -0.020048386204 0.011132041047 
-0.0048811023623 -0.022973094928 0.0079384743582 -0.0070254906076 -0.0049089191713 0.0045557685763 0.0027639743019 0.005064751523 0.002484073842 
-0.0017441428602 0.0021445344245 -1.4754365545e-06 0.0043924409747 -0.013967189363 0.0069521183671 -0.0010488545414 -0.010898899572 0.0047081684567 
-0.0049316637534 -0.018759549668 -0.014746915565 -0.026558308166 0.0181704717 -0.0493394781 0.0018118235025 -0.014711820619 -0.0026039458352 
-0.005004448147 0.0027116019193 0.00021286963465 -0.0040249201649 -0.018402073154 0.017573593339 -0.0045157518515 -0.0056122392592 0.0008993356339 
-0.0037428604377 0.0080954404568 0.0057983836556 -0.0035606554812 -0.004382514233 0.0083389566771 -0.017750834026 -0.0097065990057 -0.018433792698 
-0.024517007262 0.011745606359 -0.045915365349 -0.030528832509 -0.013239576834 0.042193344247 -0.023237457208 -0.037763987018 -0.019736455063 
-0.013307224577 -0.02943015071 0.012233776335 0.00019931770271 -0.021322436598 0.01327755759 0.0081524625123 0.0030290318766 0.011781905738 
0.025698905421 -0.022799782676 0.040052960299 -0.02081337409 0.0059466142456 0.016750536787 -0.0057319729858 -0.0069853821269 0.020873628245 
0.0090761733962 0.013423370408 0.00760856864 -0.015428172076 0.038103091141 -0.0089967606697 0.019157765608 0.016880222841 -0.0072839108915 
0.0066492079388 0.0098866407929 -0.027811122176 0.0079961561286 0.0022836368593 -0.068936730496 -0.0059151752043 -0.010021431354 0.0069781079425 
0.00053565698975 -0.00059017446579 0.018490471633 -0.019750969613 -0.0078392451991 0.003879342687 -0.0045013330266 0.0039003661705 0.022288810926 
-0.0042449459443 -0.0060188788309 0.018128921402 0.018371829111 0.01598740119 0.025071076822 0.030684077892 0.0030561129854 0.0055203530757 
0.014497851417 -6.3262880896e-05 -0.017371750068 0.038708268731 -0.009988406102 0.010066263672 0.013386119039 -1.4513232659e-05 -0.031353521888 
-0.0045589535649 0.0012048269042 0.010104815316 -0.000761074871 -0.0054844335648 0.0047768135551 0.0063763699972 -0.01378433545 0.0067993733726 
0.011054524757 -0.015693658297 0.0057665351924 0.017621533003 -0.0057695938664 0.020113510256 0.021665557032 -0.0065982385151 0.0071342537804 
0.0099219383398 -0.019826292745 -0.013316975457 0.01969837731 -0.014102612444 -0.04298680792 0.021005550781 -0.02217856523 -0.058202722401 
0.010784092006 -0.0045441365583 0.0072789146736 0.0033103848814 0.0033864441645 0.0040519793977 -0.0064310181919 0.00024678493517 0.013584503644 