# vtk DataFile Version 5.1
Generated by LIGGGHTS
ASCII
DATASET POLYDATA
POINTS 1000 float
0.017612 -0.043214 0.00153136 0.00425993 -0.0395207 0.00164637 0.00491513 -0.0368231 0.00232693 
0.00562955 -0.0158261 0.00174906 0.00218807 -0.0126326 0.00151416 0.00500704 -0.0130325 0.001695 
0.00771449 -0.0138929 0.00148624 0.0124439 -0.013365 0.00321042 0.00535145 -0.010226 0.0019863 
0.00820175 -0.0102445 0.00186773 0.0110569 -0.010178 0.00191554 0.0136073 -0.0113979 0.00151463 
0.0192345 -0.0116226 0.00205039 0.0219929 -0.012235 0.00164667 -0.00454357 -0.00905041 0.00230403 
-0.000288292 -0.00962066 0.00185717 0.0025314 -0.00988726 0.00221126 0.00420381 -0.00762727 0.00174083 
0.00957513 -0.00774726 0.00206829 0.0149252 -0.00888978 0.00178687 0.0180757 -0.00745265 0.00148311 
0.02032 -0.00899961 0.00229554 0.0253437 -0.0084151 0.00225813 0.0281426 -0.00872694 0.00193401 
0.0308666 -0.0094851 0.00161 -0.00624393 -0.00690725 0.00148704 -0.00341239 -0.00653524 0.00157885 
-0.000610963 -0.00680039 0.00212402 0.00807716 -0.00499977 0.00149186 0.0129434 -0.00499345 0.00177772 
0.0155756 -0.00611168 0.00157126 0.0236967 -0.00609097 0.00200319 0.0269591 -0.0061145 0.00174111 
0.0321705 -0.00706232 0.00236535 -0.02204 -0.00234448 0.00221697 0.00644049 -0.00266302 0.00157326 
0.0111636 -0.00277676 0.00203846 0.0173943 -0.00389749 0.00147935 0.0200786 -0.00335654 0.00226498 
0.0228876 -0.00336663 0.00166984 0.0256967 -0.00357334 0.00217616 0.02846 -0.00367736 0.0014923 
0.031156 -0.00441237 0.00207475 -0.00119875 -0.00254239 0.00151821 0.0041739 -0.000919351 0.00148044 
0.0170508 -0.00105694 0.00147149 0.0223141 -0.00057193 0.0015315 0.00521748 -0.0389017 0.00426188 
0.00557191 -0.0168767 0.00440665 0.00215457 -0.0129074 0.00471514 0.0032238 -0.0148773 0.00294215 
0.00633326 -0.014157 0.00395679 0.00963528 -0.0136739 0.00358094 0.0165559 -0.0124264 0.00261988 
0.000766453 -0.0104421 0.00437672 0.00404078 -0.0107743 0.00446735 0.0183359 -0.0117477 0.00476422 
-0.00254635 -0.0078424 0.00394923 0.00264075 -0.00828973 0.00456188 0.00682914 -0.00791947 0.00280289 
0.0124118 -0.00772136 0.00244891 0.0173433 -0.00972989 0.00303062 0.0159441 -0.00748168 0.0040665 
0.0187904 -0.00758152 0.00424217 0.0214044 -0.00852039 0.00488253 0.0229744 -0.00986387 0.00291194 
0.0242588 -0.00828238 0.00489776 0.027081 -0.0081437 0.00451714 -0.0214887 -0.00717018 0.00493223 
-0.00748795 -0.00525532 0.00449376 -0.00527089 -0.00701215 0.00416545 -0.000196557 -0.00657891 0.00494148 
0.00293743 -0.00569311 0.00340736 0.0135748 -0.00597114 0.00436493 0.021064 -0.00634905 0.00304673 
0.0240224 -0.00544661 0.00477073 0.0268815 -0.00530481 0.00447408 0.0294591 -0.00646935 0.00307272 
0.0316021 -0.00548299 0.00468156 -0.0238849 -0.00571965 0.00440589 -0.0213338 -0.00447932 0.00398719 
-0.00580634 -0.00298671 0.00483148 -0.00220442 -0.00500746 0.00365396 0.000482948 -0.00431723 0.00299717 
0.00419607 -0.00314431 0.0032688 0.00863306 -0.00291019 0.00335762 0.0132316 -0.00316474 0.00395469 
0.0158436 -0.00436066 0.0037805 0.019253 -0.00478491 0.00459527 0.0211253 -0.00262468 0.00480702 
0.0239248 -0.00264622 0.00421967 0.0293279 -0.00383758 0.00419262 -0.0236284 -0.00288262 0.00452481 
-0.00754848 -0.0010861 0.00361278 -0.00506281 -0.000212401 0.00252355 -0.00353468 -0.00253511 0.00316775 
-0.000958417 -0.00226158 0.00434641 -0.00222354 -8.62358e-05 0.00251574 0.0018796 -0.00217174 0.00464569 
0.00058074 -0.000600517 0.00262802 0.00631724 -0.00145415 0.00415293 0.0178832 -0.00237898 0.00383097 
0.0196577 -0.000547107 0.00255594 0.0302828 -0.0017302 0.00253125 0.00411812 -0.0147527 0.00564611 
0.00568211 -0.0124181 0.00612338 0.0217572 -0.0113391 0.00504022 0.0135351 -0.00878747 0.00485014 
0.0172234 -0.00933243 0.00584384 -0.00405631 -0.00502523 0.00581862 0.00607346 -0.0066714 0.00524807 
0.0116025 -0.0053123 0.00628127 0.021545 -0.00539331 0.00619245 -0.00132411 -0.00432449 0.00628111 
0.00417631 -0.00460257 0.00573541 0.00694077 -0.00394586 0.00541471 0.00965705 -0.00329722 0.00596576 
0.0127502 -0.0027097 0.00674893 0.014926 -0.00455884 0.00638804 0.0230151 -0.00304597 0.00684719 
-0.00329721 -0.00228071 0.0059985 0.00639559 -6.40435e-05 0.00677629 0.0152147 -0.0018711 0.00555578 
0.0178154 -0.000920152 0.00629399 0.0147111 -0.00138237 0.008336 -0.0210291 -0.0256489 0.0136805 
0.0150534 -0.0126471 0.00989917 0.0023089 -0.011819 0.0083708 0.0107075 -0.0104178 0.00825642 
0.020135 -0.0106972 0.00799869 -0.00088254 -0.0083535 0.00840198 0.00450799 -0.00875778 0.00856703 
0.00950981 -0.00803879 0.00986486 -0.00515729 -0.00708521 0.00907801 0.00252443 -0.00506457 0.00979787 
0.00697178 -0.00636035 0.00849605 0.00976205 -0.00571413 0.00838865 -0.00459424 -0.00310115 0.00920326 
0.000269919 -0.00253987 0.00814047 0.00725789 -0.00349915 0.00975007 0.0139008 -0.00478785 0.00900642 
0.0194432 -0.00398836 0.00832393 0.0226125 -0.00454569 0.00912318 -0.00723867 -0.00161703 0.00819307 
0.0293025 -0.00224623 0.00826457 0.0105373 -0.013162 0.0108723 0.00263912 -0.0118 0.0119205 
0.00171744 -0.00900392 0.010645 0.012606 -0.00794626 0.0114531 0.0165476 -0.00889946 0.0111284 
0.0216972 -0.00880215 0.0114714 -0.00583245 -0.00628172 0.0120092 0.00668328 -0.0057114 0.0122728 
0.0245803 -0.00726984 0.0103991 -0.00723029 -0.00435769 0.0100857 0.00976868 -0.0038265 0.0119949 
0.017108 -0.00300195 0.0108066 0.0266755 -0.00272967 0.0116322 -0.0020623 -0.0018087 0.0107741 
0.00226019 -0.00241906 0.0119237 0.0137614 -0.00222455 0.0110238 0.0226179 -0.0016597 0.010154 
0.00968051 -0.0133938 0.0138736 0.00620913 -0.0114518 0.0127137 0.0129948 -0.0124193 0.0128271 
0.0175912 -0.0121567 0.0144513 0.011493 -0.00983807 0.014366 0.0135313 -0.00754705 0.0145138 
0.0198704 -0.00990055 0.0143617 0.0240832 -0.00862879 0.0139234 -0.00237281 -0.00745794 0.0129449 
0.000554968 -0.0052981 0.0132235 0.00378837 -0.00716791 0.0126309 -0.00811056 -0.00275725 0.0126367 
0.0268537 -0.00447958 0.0145304 -0.00109251 -0.00203691 0.0137545 0.0160463 -0.00162992 0.0140376 
0.0298767 -0.00217891 0.0126745 -0.000353447 -0.0106154 0.0151666 0.0201626 -0.00670628 0.0151101 
-0.005487 -0.00451522 0.0151524 0.00933726 -0.00412522 0.015062 0.00414641 -0.00186365 0.0150943 
0.0206692 -0.0022492 0.0151617 -0.024234 -0.0135021 0.0325905 0.0110937 -0.0129354 0.0340668 
-0.00154334 -0.0101732 0.0333135 0.00349919 -0.0102358 0.0321666 0.00706869 -0.0124446 0.0327068 
0.0064568 -0.00768496 0.0330833 0.011844 -0.00976446 0.0330213 0.0158248 -0.00806689 0.0337038 
0.0219084 -0.00938161 0.0326623 0.00349982 -0.0070736 0.0332158 0.0134513 -0.00572242 0.032629 
0.01988 -0.00658548 0.0324314 -0.00978838 -0.002504 0.0340046 -0.0055848 -0.00262286 0.0322267 
0.00446161 -0.0026273 0.03247 0.00839111 -0.00467737 0.0321421 0.0112205 -0.00349384 0.033193 
0.0245364 -0.00360176 0.0340208 0.0285673 -0.0043284 0.0322516 0.019515 -0.00186515 0.0321295 
0.00654792 -0.0132181 0.0364884 0.0137241 -0.0100998 0.0355291 0.016809 -0.0109745 0.0346457 
0.00600125 -0.00958303 0.035895 0.00936901 -0.00899664 0.0361996 0.0183862 -0.00838178 0.0355397 
-0.00705797 -0.00547328 0.0342882 -0.00367241 -0.00516981 0.0345134 0.00663578 -0.00522061 0.0353997 
0.015608 -0.00627634 0.0363424 0.0200825 -0.00540089 0.0353714 0.0227121 -0.00706899 0.0349368 
0.0271361 -0.00566692 0.0345964 -0.000521577 -0.00334463 0.0351122 0.00836173 -0.00282971 0.034533 
-0.00569476 -0.00203973 0.0361428 0.0150257 -0.00243068 0.0355642 0.0272796 -0.00218533 0.0346283 
0.0041859 -0.0127503 0.0382942 0.0103648 -0.0132939 0.03745 -0.00376229 -0.00833338 0.0378904 
0.000578021 -0.00905996 0.0367323 0.0139207 -0.00880097 0.0387849 0.0216941 -0.00991844 0.0377847 
-0.000430001 -0.00660907 0.0381852 0.00287227 -0.0062379 0.0369796 0.00755183 -0.00643588 0.0387425 
-0.00661758 -0.00498749 0.0374489 -0.00229182 -0.00409767 0.0375603 0.00639831 -0.00258572 0.0384873 
0.0110749 -0.00257683 0.0381055 0.0161083 -0.00401193 0.0382643 0.0233522 -0.00458587 0.037518 
0.0286865 -0.00314983 0.0378218 -0.00961872 -0.00207077 0.0383786 0.00163857 -0.00168436 0.0379195 
0.0196131 -0.00227081 0.0368899 0.0250395 -0.00175307 0.0380284 0.00692926 -0.010494 0.0391214 
0.00231845 -0.00865902 0.0391979 0.0103748 -0.00771657 0.0391205 0.0357099 -2.10996e-05 0.00316205 
-0.00372857 0.00212072 0.00149883 0.00680571 0.000138718 0.00183389 0.0137271 0.0003811 0.00227195 
0.0161726 0.00166131 0.00158247 0.0210915 0.00190247 0.00226728 0.0382547 4.13111e-05 0.00187529 
-0.00576649 0.00412805 0.00148831 0.0133724 0.00497752 0.0021183 0.0246268 0.00353393 0.00180047 
0.0367275 0.00244346 0.00217893 -0.00648717 0.00691711 0.00172485 0.000716286 0.0058731 0.00166823 
0.0115028 0.00702722 0.00147893 0.018345 0.00605234 0.00194966 0.00141584 0.00864086 0.00146858 
0.00905932 0.00856545 0.00149355 0.0115712 0.00986123 0.00150335 0.0332492 0.00778609 0.00247452 
-0.00964227 0.0122977 0.00158994 -0.0035343 0.010166 0.00221115 -0.000809994 0.0104436 0.00144082 
0.0036916 0.0101372 0.00227697 0.00639694 0.0108436 0.00162281 0.0091976 0.0114307 0.00165646 
0.0140928 0.0111085 0.00187167 0.0192189 0.0118741 0.00224981 0.0239436 0.0115283 0.00217638 
0.0263754 0.0100693 0.00174242 0.0291705 0.0105806 0.00147544 0.00438051 0.0128606 0.00186734 
0.00965746 0.0142387 0.00190824 0.0168256 0.013226 0.00148139 0.0211146 0.0139869 0.00227413 
0.0239156 0.0143636 0.00188549 0.0263888 0.0129313 0.00177938 0.0287728 0.0144461 0.00146114 
0.0309965 0.012698 0.00191963 -0.0140284 0.0148869 0.0015392 -0.0089088 0.0150479 0.00147081 
0.00254928 0.015003 0.00147319 0.00849608 0.0168627 0.00185504 0.0147266 0.0151527 0.00174849 
0.0174359 0.0160307 0.00161772 0.0201667 0.0166749 0.0021169 0.0240491 0.0172074 0.00160753 
0.0268348 0.0165752 0.00171115 -0.00984219 0.017697 0.00196722 -0.00167796 0.0190211 0.00215127 
0.00286446 0.0178332 0.00149376 0.00527416 0.0193443 0.00147131 0.010519 0.0188859 0.00178713 
0.0248018 0.019945 0.00147275 0.0275681 0.019904 0.00211719 -0.00915372 0.0204274 0.00144997 
[...]
POINT_DATA 1000
FIELD FieldData 7
id 1 1000 int
18 10 41 49 266 25 280 301 22 
12 290 285 53 3 36 282 263 268 
277 37 46 48 21 9 32 302 17 
2 16 50 30 15 39 141 29 104 
38 33 7 19 274 309 247 43 235 
138 164 24 1 252 254 52 262 297 
298 256 296 58 306 251 295 56 13 
45 294 27 264 260 83 259 270 253 
287 31 4 281 305 34 65 40 23 
304 28 47 308 44 8 5 273 289 
261 292 51 291 191 205 54 107 303 
11 35 42 14 279 26 267 272 258 
257 293 278 286 284 255 283 265 275 
300 269 307 276 158 299 288 271 20 
504 531 520 501 524 548 552 549 534 
528 532 506 536 545 517 556 512 529 
554 558 515 508 526 518 521 502 542 
503 507 539 513 527 541 510 557 547 
551 535 544 543 555 516 546 533 525 
522 540 519 530 505 550 511 509 538 
523 553 537 514 57 766 761 769 789 
776 774 797 803 796 758 800 804 806 
764 783 793 752 788 790 810 802 782 
787 755 786 784 757 762 791 772 763 
767 753 799 771 754 807 775 773 768 
765 795 751 778 798 808 794 759 756 
760 780 785 801 792 779 770 809 805 
781 777 136 102 6 378 55 186 248 
199 314 131 160 89 429 112 331 69 
63 206 433 227 237 118 243 123 116 
211 238 157 130 149 204 84 62 155 
203 165 80 169 178 175 183 472 154 
249 179 222 90 194 310 120 87 332 
208 117 86 127 182 110 64 430 105 
407 376 404 75 231 399 159 124 184 
77 103 195 484 197 79 98 236 360 
151 177 143 148 239 156 487 392 496 
168 139 95 114 192 200 91 193 339 
416 397 323 113 482 67 72 66 218 
962 357 214 209 389 161 344 202 242 
363 96 232 359 423 94 212 445 413 
119 384 425 234 419 455 313 101 85 
122 73 246 213 189 147 99 92 317 
128 229 145 220 241 180 352 448 142 
185 78 223 88 198 61 100 408 166 
428 415 490 93 311 163 462 492 346 
427 471 387 146 59 221 240 201 385 
483 394 391 82 126 245 196 226 109 
106 412 495 379 465 347 435 140 436 
97 364 366 315 464 188 174 341 451 
167 463 225 418 402 60 390 447 349 
367 388 162 176 439 224 153 76 219 
81 459 125 329 401 121 190 370 320 
431 134 233 111 443 457 369 434 132 
477 383 393 499 449 486 468 129 68 
365 330 328 380 452 450 454 382 338 
335 398 460 438 173 172 135 355 362 
250 333 475 498 210 152 70 466 470 
456 343 476 350 473 215 150 181 342 
396 340 74 137 244 368 373 411 377 
337 420 230 371 386 409 406 414 115 
481 474 395 336 444 467 319 318 400 
322 479 485 491 432 356 437 422 381 
71 442 170 228 372 334 458 326 353 
441 325 207 469 417 440 316 453 493 
358 410 446 354 217 108 403 489 361 
405 497 424 494 321 480 327 375 312 
461 348 500 426 374 345 421 488 324 
478 171 679 698 703 695 747 655 678 
566 724 579 670 563 656 727 593 619 
718 625 707 606 682 654 650 599 624 
700 710 723 622 715 713 742 714 585 
598 743 672 691 586 590 674 576 728 
702 628 618 604 734 740 560 592 616 
638 696 574 735 571 613 640 749 351 
648 649 642 632 685 647 711 645 673 
629 659 738 730 611 216 664 607 609 
591 584 736 637 561 562 683 605 610 
721 634 748 578 570 660 739 588 697 
722 587 741 581 595 575 662 644 559 
750 746 631 686 681 564 690 693 652 
573 603 577 133 709 601 675 689 688 
633 701 596 744 627 680 589 666 569 
669 582 653 658 657 626 726 677 671 
630 580 692 719 617 745 568 583 636 
144 614 706 737 733 676 667 665 594 
725 600 621 712 597 643 620 651 608 
716 602 720 708 615 639 623 635 668 
729 565 612 704 567 663 572 187 732 
717 731 684 705 646 694 687 661 641 
699 876 959 927 981 992 862 961 915 
890 835 855 843 901 979 871 856 910 
924 917 912 859 883 866 951 914 867 
897 976 982 828 948 968 902 973 834 
970 857 905 993 852 893 987 988 875 
885 818 925 952 811 989 906 821 860 
922 945 929 921 967 916 833 841 837 
847 817 930 935 936 814 813 863 812 
953 990 943 870 873 954 950 934 824 
966 957 977 949 881 963 933 836 816 
845 889 868 944 822 965 819 947 940 
986 827 858 978 874 848 898 839 878 
939 919 861 932 877 974 825 896 886 
997 984 971 907 869 840 942 900 891 
931 911 937 864 985 964 926 903 895 
975 849 998 872 842 888 851 969 983 
823 955 920 908 846 815 894 1000 960 
884 956 826 844 904 996 923 838 994 
829 880 831 865 918 899 854 820 980 
830 972 887 892 879 913 991 850 853 
946 928 958 909 941 882 938 995 999 
832 
type 1 1000 int
1 1 1 1 1 1 1 1 1 
1 1 1 1 1 1 1 1 1 
1 1 1 1 1 1 1 1 1 
1 1 1 1 1 1 1 1 1 
1 1 1 1 1 1 1 1 1 
1 1 1 1 1 1 1 1 1 
1 1 1 1 1 1 1 1 1 
1 1 1 1 1 1 1 1 1 
1 1 1 1 1 1 1 1 1 
1 1 1 1 1 1 1 1 1 
1 1 1 1 1 1 1 1 1 
1 1 1 1 1 1 1 1 1 
1 1 1 1 1 1 1 1 1 
1 1 1 1 1 1 1 1 1 
1 1 1 1 1 1 1 1 1 
1 1 1 1 1 1 1 1 1 
1 1 1 1 1 1 1 1 1 
1 1 1 1 1 1 1 1 1 
1 1 1 1 1 1 1 1 1 
1 1 1 1 1 1 1 1 1 
1 1 1 1 1 1 1 1 1 
1 1 1 1 1 1 1 1 1 
1 1 1 1 1 1 1 1 1 
1 1 1 1 1 1 1 1 1 
1 1 1 1 1 1 1 1 1 
1 1 1 1 1 1 1 1 1 
1 1 1 1 1 1 1 1 1 
1 1 1 1 1 1 1 1 1 
1 1 1 1 1 1 1 1 1 
1 1 1 1 1 1 1 1 1 
1 1 1 1 1 1 1 1 1 
1 1 1 1 1 1 1 1 1 
1 1 1 1 1 1 1 1 1 
1 1 1 1 1 1 1 1 1 
1 1 1 1 1 1 1 1 1 
1 1 1 1 1 1 1 1 1 
1 1 1 1 1 1 1 1 1 
1 1 1 1 1 1 1 1 1 
1 1 1 1 1 1 1 1 1 
1 1 1 1 1 1 1 1 1 
1 1 1 1 1 1 1 1 1 
1 1 1 1 1 1 1 1 1 
1 1 1 1 1 1 1 1 1 
1 1 1 1 1 1 1 1 1 
1 1 1 1 1 1 1 1 1 
1 1 1 1 1 1 1 1 1 
1 1 1 1 1 1 1 1 1 
1 1 1 1 1 1 1 1 1 
1 1 1 1 1 1 1 1 1 
1 1 1 1 1 1 1 1 1 
1 1 1 1 1 1 1 1 1 
1 1 1 1 1 1 1 1 1 
1 1 1 1 1 1 1 1 1 
1 1 1 1 1 1 1 1 1 
1 1 1 1 1 1 1 1 1 
1 1 1 1 1 1 1 1 1 
1 1 1 1 1 1 1 1 1 
1 1 1 1 1 1 1 1 1 
1 1 1 1 1 1 1 1 1 
1 1 1 1 1 1 1 1 1 
1 1 1 1 1 1 1 1 1 
1 1 1 1 1 1 1 1 1 
1 1 1 1 1 1 1 1 1 
1 1 1 1 1 1 1 1 1 
1 1 1 1 1 1 1 1 1 
1 1 1 1 1 1 1 1 1 
1 1 1 1 1 1 1 1 1 
1 1 1 1 1 1 1 1 1 
1 1 1 1 1 1 1 1 1 
1 1 1 1 1 1 1 1 1 
1 1 1 1 1 1 1 1 1 
1 1 1 1 1 1 1 1 1 
1 1 1 1 1 1 1 1 1 
1 1 1 1 1 1 1 1 1 
1 1 1 1 1 1 1 1 1 
1 1 1 1 1 1 1 1 1 
1 1 1 1 1 1 1 1 1 
1 1 1 1 1 1 1 1 1 
1 1 1 1 1 1 1 1 1 
1 1 1 1 1 1 1 1 1 
1 1 1 1 1 1 1 1 1 
1 1 1 1 1 1 1 1 1 
1 1 1 1 1 1 1 1 1 
1 1 1 1 1 1 1 1 1 
1 1 1 1 1 1 1 1 1 
1 1 1 1 1 1 1 1 1 
1 1 1 1 1 1 1 1 1 
1 1 1 1 1 1 1 1 1 
1 1 1 1 1 1 1 1 1 
1 1 1 1 1 1 1 1 1 
1 1 1 1 1 1 1 1 1 
1 1 1 1 1 1 1 1 1 
1 1 1 1 1 1 1 1 1 
1 1 1 1 1 1 1 1 1 
1 1 1 1 1 1 1 1 1 
1 1 1 1 1 1 1 1 1 
1 1 1 1 1 1 1 1 1 
1 1 1 1 1 1 1 1 1 
1 1 1 1 1 1 1 1 1 
1 1 1 1 1 1 1 1 1 
1 1 1 1 1 1 1 1 1 
1 1 1 1 1 1 1 1 1 
1 1 1 1 1 1 1 1 1 
1 1 1 1 1 1 1 1 1 
1 1 1 1 1 1 1 1 1 
1 1 1 1 1 1 1 1 1 
1 1 1 1 1 1 1 1 1 
1 1 1 1 1 1 1 1 1 
1 1 1 1 1 1 1 1 1 
1 1 1 1 1 1 1 1 1 
1 1 1 1 1 1 1 1 1 
1 
i 3 1000 int
0 0 0 0 0 0 0 0 0 
0 0 0 0 0 0 0 0 0 
0 0 0 0 0 0 0 0 0 
0 0 0 0 0 0 0 0 0 
0 0 0 0 0 0 0 0 0 
0 0 0 0 0 0 0 0 0 
0 0 0 0 0 0 0 0 0 
0 0 0 0 0 0 0 0 0 
0 0 0 0 0 0 0 0 0 
0 0 0 0 0 0 0 0 0 
0 0 0 0 0 0 0 0 0 
0 0 0 0 0 0 0 0 0 
0 0 0 0 0 0 0 0 0 
0 0 0 0 0 0 0 0 0 
0 0 0 0 0 0 0 0 0 
0 0 0 0 0 0 0 0 0 
0 0 0 0 0 0 0 0 0 
0 0 0 0 0 0 0 0 0 
0 0 0 0 0 0 0 0 0 
0 0 0 0 0 0 0 0 0 
0 0 0 0 0 0 0 0 0 
0 0 0 0 0 0 0 0 0 
0 0 0 0 0 0 0 0 0 
0 0 0 0 0 0 0 0 0 
0 0 0 0 0 0 0 0 0 
0 0 0 0 0 0 0 0 0 
0 0 0 0 0 0 0 0 0 
0 0 0 0 0 0 0 0 0 
0 0 0 0 0 0 0 0 0 
0 0 0 0 0 0 0 0 0 
0 0 0 0 0 0 0 0 0 
0 0 0 0 0 0 0 0 0 
0 0 0 0 0 0 0 0 0 
0 0 0 0 0 0 0 0 0 
0 0 0 0 0 0 0 0 0 
0 0 0 0 0 0 0 0 0 
0 0 0 0 0 0 0 0 0 
0 0 0 0 0 0 0 0 0 
0 0 0 0 0 0 0 0 0 
0 0 0 0 0 0 0 0 0 
0 0 0 0 0 0 0 0 0 
0 0 0 0 0 0 0 0 0 
0 0 0 0 0 0 0 0 0 
0 0 0 0 0 0 0 0 0 
0 0 0 0 0 0 0 0 0 
0 0 0 0 0 0 0 0 0 
0 0 0 0 0 0 0 0 0 
0 0 0 0 0 0 0 0 0 
0 0 0 0 0 0 0 0 0 
0 0 0 0 0 0 0 0 0 
0 0 0 0 0 0 0 0 0 
0 0 0 0 0 0 0 0 0 
0 0 0 0 0 0 0 0 0 
0 0 0 0 0 0 0 0 0 
0 0 0 0 0 0 0 0 0 
0 0 0 0 0 0 0 0 0 
0 0 0 0 0 0 0 0 0 
0 0 0 0 0 0 0 0 0 
0 0 0 0 0 0 0 0 0 
0 0 0 0 0 0 0 0 0 
0 0 0 0 0 0 0 0 0 
0 0 0 0 0 0 0 0 0 
0 0 0 0 0 0 0 0 0 
0 0 0 0 0 0 0 0 0 
0 0 0 0 0 0 0 0 0 
0 0 0 0 0 0 0 0 0 
0 0 0 0 0 0 0 0 0 
0 0 0 0 0 0 0 0 0 
0 0 0 0 0 0 0 0 0 
0 0 0 0 0 0 0 0 0 
0 0 0 0 0 0 0 0 0 
0 0 0 0 0 0 0 0 0 
0 0 0 0 0 0 0 0 0 
0 0 0 0 0 0 0 0 0 
0 0 0 0 0 0 0 0 0 
0 0 0 0 0 0 0 0 0 
0 0 0 0 0 0 0 0 0 
0 0 0 0 0 0 0 0 0 
0 0 0 0 0 0 0 0 0 
0 0 0 0 0 0 0 0 0 
0 0 0 0 0 0 0 0 0 
0 0 0 0 0 0 0 0 0 
0 0 0 0 0 0 0 0 0 
0 0 0 0 0 0 0 0 0 
0 0 0 0 0 0 0 0 0 
0 0 0 0 0 0 0 0 0 
0 0 0 0 0 0 0 0 0 
0 0 0 0 0 0 0 0 0 
0 0 0 0 0 0 0 0 0 
0 0 0 0 0 0 0 0 0 
0 0 0 0 0 0 0 0 0 
0 0 0 0 0 0 0 0 0 
0 0 0 0 0 0 0 0 0 
0 0 0 0 0 0 0 0 0 
0 0 0 0 0 0 0 0 0 
0 0 0 0 0 0 0 0 0 
0 0 0 0 0 0 0 0 0 
0 0 0 0 0 0 0 0 0 
0 0 0 0 0 0 0 0 0 
0 0 0 0 0 0 0 0 0 
0 0 0 0 0 0 0 0 0 
0 0 0 0 0 0 0 0 0 
0 0 0 0 0 0 0 0 0 
0 0 0 0 0 0 0 0 0 
0 0 0 0 0 0 0 0 0 
0 0 0 0 0 0 0 0 0 
0 0 0 0 0 0 0 0 0 
0 0 0 0 0 0 0 0 0 
0 0 0 0 0 0 0 0 0 
0 0 0 0 0 0 0 0 0 
0 0 0 0 0 0 0 0 0 
0 0 0 0 0 0 0 0 0 
0 0 0 0 0 0 0 0 0 
0 0 0 0 0 0 0 0 0 
0 0 0 0 0 0 0 0 0 
0 0 0 0 0 0 0 0 0 
0 0 0 0 0 0 0 0 0 
0 0 0 0 0 0 0 0 0 
0 0 0 0 0 0 0 0 0 
0 0 0 0 0 0 0 0 0 
0 0 0 0 0 0 0 0 0 
0 0 0 0 0 0 0 0 0 
0 0 0 0 0 0 0 0 0 
0 0 0 0 0 0 0 0 0 
0 0 0 0 0 0 0 0 0 
0 0 0 0 0 0 0 0 0 
0 0 0 0 0 0 0 0 0 
0 0 0 0 0 0 0 0 0 
0 0 0 0 0 0 0 0 0 
0 0 0 0 0 0 0 0 0 
0 0 0 0 0 0 0 0 0 
0 0 0 0 0 0 0 0 0 
0 0 0 0 0 0 0 0 0 
0 0 0 0 0 0 0 0 0 
0 0 0 0 0 0 0 0 0 
0 0 0 0 0 0 0 0 0 
0 0 0 0 0 0 0 0 0 
0 0 0 0 0 0 0 0 0 
0 0 0 0 0 0 0 0 0 
0 0 0 0 0 0 0 0 0 
0 0 0 0 0 0 0 0 0 
0 0 0 0 0 0 0 0 0 
0 0 0 0 0 0 0 0 0 
0 0 0 0 0 0 0 0 0 
0 0 0 0 0 0 0 0 0 
0 0 0 0 0 0 0 0 0 
0 0 0 0 0 0 0 0 0 
0 0 0 0 0 0 0 0 0 
0 0 0 0 0 0 0 0 0 
0 0 0 0 0 0 0 0 0 
0 0 0 0 0 0 0 0 0 
0 0 0 0 0 0 0 0 0 
0 0 0 0 0 0 0 0 0 
0 0 0 0 0 0 0 0 0 
0 0 0 0 0 0 0 0 0 
0 0 0 0 0 0 0 0 0 
0 0 0 0 0 0 0 0 0 
0 0 0 0 0 0 0 0 0 
0 0 0 0 0 0 0 0 0 
0 0 0 0 0 0 0 0 0 
0 0 0 0 0 0 0 0 0 
0 0 0 0 0 0 0 0 0 
0 0 0 0 0 0 0 0 0 
0 0 0 0 0 0 0 0 0 
0 0 0 0 0 0 0 0 0 
0 0 0 0 0 0 0 0 0 
0 0 0 0 0 0 0 0 0 
0 0 0 0 0 0 0 0 0 
0 0 0 0 0 0 0 0 0 
0 0 0 0 0 0 0 0 0 
0 0 0 0 0 0 0 0 0 
0 0 0 0 0 0 0 0 0 
0 0 0 0 0 0 0 0 0 
0 0 0 0 0 0 0 0 0 
0 0 0 0 0 0 0 0 0 
0 0 0 0 0 0 0 0 0 
0 0 0 0 0 0 0 0 0 
0 0 0 0 0 0 0 0 0 
0 0 0 0 0 0 0 0 0 
0 0 0 0 0 0 0 0 0 
0 0 0 0 0 0 0 0 0 
0 0 0 0 0 0 0 0 0 
0 0 0 0 0 0 0 0 0 
0 0 0 0 0 0 0 0 0 
0 0 0 0 0 0 0 0 0 
0 0 0 0 0 0 0 0 0 
0 0 0 0 0 0 0 0 0 
0 0 0 0 0 0 0 0 0 
0 0 0 0 0 0 0 0 0 
0 0 0 0 0 0 0 0 0 
0 0 0 0 0 0 0 0 0 
0 0 0 0 0 0 0 0 0 
0 0 0 0 0 0 0 0 0 
0 0 0 0 0 0 0 0 0 
0 0 0 0 0 0 0 0 0 
0 0 0 0 0 0 0 0 0 
0 0 0 0 0 0 0 0 0 
0 0 0 0 0 0 0 0 0 
0 0 0 0 0 0 0 0 0 
0 0 0 0 0 0 0 0 0 
0 0 0 0 0 0 0 0 0 
0 0 0 0 0 0 0 0 0 
0 0 0 0 0 0 0 0 0 
0 0 0 0 0 0 0 0 0 
0 0 0 0 0 0 0 0 0 
0 0 0 0 0 0 0 0 0 
0 0 0 0 0 0 0 0 0 
0 0 0 0 0 0 0 0 0 
0 0 0 0 0 0 0 0 0 
0 0 0 0 0 0 0 0 0 
0 0 0 0 0 0 0 0 0 
0 0 0 0 0 0 0 0 0 
0 0 0 0 0 0 0 0 0 
0 0 0 0 0 0 0 0 0 
0 0 0 0 0 0 0 0 0 
0 0 0 0 0 0 0 0 0 
0 0 0 0 0 0 0 0 0 
0 0 0 0 0 0 0 0 0 
0 0 0 0 0 0 0 0 0 
0 0 0 0 0 0 0 0 0 
0 0 0 0 0 0 0 0 0 
0 0 0 0 0 0 0 0 0 
0 0 0 0 0 0 0 0 0 
0 0 0 0 0 0 0 0 0 
0 0 0 0 0 0 0 0 0 
0 0 0 0 0 0 0 0 0 
0 0 0 0 0 0 0 0 0 
0 0 0 0 0 0 0 0 0 
0 0 0 0 0 0 0 0 0 
0 0 0 0 0 0 0 0 0 
0 0 0 0 0 0 0 0 0 
0 0 0 0 0 0 0 0 0 
0 0 0 0 0 0 0 0 0 
0 0 0 0 0 0 0 0 0 
0 0 0 0 0 0 0 0 0 
0 0 0 0 0 0 0 0 0 
0 0 0 0 0 0 0 0 0 
0 0 0 0 0 0 0 0 0 
0 0 0 0 0 0 0 0 0 
0 0 0 0 0 0 0 0 0 
0 0 0 0 0 0 0 0 0 
0 0 0 0 0 0 0 0 0 
0 0 0 0 0 0 0 0 0 
0 0 0 0 0 0 0 0 0 
0 0 0 0 0 0 0 0 0 
0 0 0 0 0 0 0 0 0 
0 0 0 0 0 0 0 0 0 
0 0 0 0 0 0 0 0 0 
0 0 0 0 0 0 0 0 0 
0 0 0 0 0 0 0 0 0 
0 0 0 0 0 0 0 0 0 
0 0 0 0 0 0 0 0 0 
0 0 0 0 0 0 0 0 0 
0 0 0 0 0 0 0 0 0 
0 0 0 0 0 0 0 0 0 
0 0 0 0 0 0 0 0 0 
0 0 0 0 0 0 0 0 0 
0 0 0 0 0 0 0 0 0 
0 0 0 0 0 0 0 0 0 
0 0 0 0 0 0 0 0 0 
0 0 0 0 0 0 0 0 0 
0 0 0 0 0 0 0 0 0 
0 0 0 0 0 0 0 0 0 
0 0 0 0 0 0 0 0 0 
0 0 0 0 0 0 0 0 0 
0 0 0 0 0 0 0 0 0 
0 0 0 0 0 0 0 0 0 
0 0 0 0 0 0 0 0 0 
0 0 0 0 0 0 0 0 0 
0 0 0 0 0 0 0 0 0 
0 0 0 0 0 0 0 0 0 
0 0 0 0 0 0 0 0 0 
0 0 0 0 0 0 0 0 0 
0 0 0 0 0 0 0 0 0 
0 0 0 0 0 0 0 0 0 
0 0 0 0 0 0 0 0 0 
0 0 0 0 0 0 0 0 0 
0 0 0 0 0 0 0 0 0 
0 0 0 0 0 0 0 0 0 
0 0 0 0 0 0 0 0 0 
0 0 0 0 0 0 0 0 0 
0 0 0 0 0 0 0 0 0 
0 0 0 0 0 0 0 0 0 
0 0 0 0 0 0 0 0 0 
0 0 0 0 0 0 0 0 0 
0 0 0 0 0 0 0 0 0 
0 0 0 0 0 0 0 0 0 
0 0 0 0 0 0 0 0 0 
0 0 0 0 0 0 0 0 0 
0 0 0 0 0 0 0 0 0 
0 0 0 0 0 0 0 0 0 
0 0 0 0 0 0 0 0 0 
0 0 0 0 0 0 0 0 0 
0 0 0 0 0 0 0 0 0 
0 0 0 0 0 0 0 0 0 
0 0 0 0 0 0 0 0 0 
0 0 0 0 0 0 0 0 0 
0 0 0 0 0 0 0 0 0 
0 0 0 0 0 0 0 0 0 
0 0 0 0 0 0 0 0 0 
0 0 0 0 0 0 0 0 0 
0 0 0 0 0 0 0 0 0 
0 0 0 0 0 0 0 0 0 
0 0 0 0 0 0 0 0 0 
0 0 0 0 0 0 0 0 0 
0 0 0 0 0 0 0 0 0 
0 0 0 0 0 0 0 0 0 
0 0 0 0 0 0 0 0 0 
0 0 0 0 0 0 0 0 0 
0 0 0 0 0 0 0 0 0 
0 0 0 0 0 0 0 0 0 
0 0 0 0 0 0 0 0 0 
0 0 0 0 0 0 0 0 0 
0 0 0 0 0 0 0 0 0 
0 0 0 0 0 0 0 0 0 
0 0 0 0 0 0 0 0 0 
0 0 0 0 0 0 0 0 0 
0 0 0 0 0 0 0 0 0 
0 0 0 0 0 0 0 0 0 
0 0 0 0 0 0 0 0 0 
0 0 0 0 0 0 0 0 0 
0 0 0 0 0 0 0 0 0 
0 0 0 0 0 0 0 0 0 
0 0 0 0 0 0 0 0 0 
0 0 0 0 0 0 0 0 0 
0 0 0 0 0 0 0 0 0 
0 0 0 0 0 0 0 0 0 
0 0 0 0 0 0 0 0 0 
0 0 0 0 0 0 0 0 0 
0 0 0 0 0 0 0 0 0 
0 0 0 0 0 0 0 0 0 
0 0 0 0 0 0 0 0 0 
0 0 0 0 0 0 0 0 0 
0 0 0 
v 3 1000 double
0.082251576895 -0.57142760234 -0.10633743032 -0.016492044189 -0.46382193016 0.048513863316 0.081636413378 -0.52660537211 0.10210766483 
0.029521666128 0.016035846015 -0.028001730653 0.031600423754 -0.022661163738 -0.044221482842 0.038292266187 0.0035552340489 -0.01530191036 
0.03482458369 0.013968664065 -0.021199064818 -0.046068821986 0.17264468924 0.14243787482 0.034015869292 -0.015803510816 -0.021237601362 
0.039860815377 -0.0068283855845 -0.03884674813 0.048673318542 0.020678168608 -0.067202952621 0.04563828308 -0.01945214324 -0.0090779519667 
0.017515314968 0.0039216041316 -0.070131223846 0.019961525568 0.019593831773 -0.0036178943685 0.045348809357 -0.048711008923 -0.0064128977521 
0.024837561647 0.0035158712975 -0.0048603746144 0.014524374467 -0.010263653922 -0.015083818938 0.027347917058 -0.015207050051 -0.012734554403 
0.029616480248 0.0036389923046 -0.079292156792 0.069966311012 0.0025987006788 -0.0665182295 0.064660338488 -0.036574053184 -0.013357892333 
0.014157712725 -0.016202967504 0.016610423655 -0.012446750533 0.019983359942 -0.0083552807291 -0.018187321459 -0.028833683657 -0.016768458563 
-0.0030036781681 -0.066293334591 -0.0011865401333 0.030255744498 -0.044619527592 -0.012781751662 0.018274939974 -0.037240794668 0.0037895680661 
0.010464097969 -0.017394122068 0.011751465186 0.074543753086 -0.039093199021 0.034281391459 0.019993730151 0.020466352799 -0.12458573449 
0.076975311534 -0.024987428343 -0.096306900892 -0.022723088099 -0.00033782103194 0.015902339393 -0.0030093928988 0.0029778415866 0.010455606629 
0.021003036252 -0.023414809487 -0.049555761205 -0.38985849817 0.069151924487 0.11546189008 0.023466926461 -0.096615907666 -0.0099663524137 
0.030247006633 0.01819058046 -0.042853183185 0.095241189728 0.033434883188 -0.092625506711 0.029543868869 0.037678119787 -0.023757449685 
-0.018601906523 -0.01739659983 -0.021393735233 -0.015315866853 -0.026404790691 0.019813757773 -0.016606292784 -0.024147405963 0.010928000708 
0.013274194593 -0.02042880725 -0.021124992058 0.012407546399 -0.0063842565936 -0.017403619693 0.0098210080376 -0.11291722792 -0.050783064866 
0.04927574996 0.073602328386 -0.0095240722887 0.0092067008295 -0.027557367603 -0.038113712487 0.15989338449 -0.63697474815 0.030177543269 
-0.00060010010417 -0.020236684045 -0.057722928462 0.015770120087 -0.026461765506 -0.018622316559 0.041917767686 -0.008298190539 -0.026386180829 
0.037999531071 -0.013707362623 -0.010069079957 -0.064928283378 0.13926532914 0.051985995628 0.01451238576 -0.012769563521 -0.077925188074 
0.021400390399 -0.027600552686 -0.0026104942071 0.025961303639 -0.029231815592 -0.031959567669 0.037839285876 -0.055708610146 -0.067045554981 
0.022154719302 -0.019624161971 0.0074562362307 0.032579932259 -0.021969078378 -0.014584385248 0.03133945083 -0.001769323536 -0.038940331753 
-0.015070239592 -0.0064763346144 -0.11076152382 0.022286845617 -0.025944784242 -0.023477232792 0.03657304514 -0.010454143329 -0.047673400099 
-0.0050990998479 -0.027937653438 -0.006223804665 0.0062197114902 0.016387280648 0.013427351522 -0.015906514326 0.02469986725 0.0067636574685 
0.0051022150562 0.0060264009769 -0.0077229942559 0.0032997575584 -0.0082050634127 -0.010486878151 -0.18323736413 -0.02094001301 0.038800179045 
0.012723992103 -0.035569165106 -0.069428261948 0.0036741665403 -0.046788240734 -0.020377731093 0.008580480433 -0.0023649853202 0.0084940272619 
0.023307434576 -0.012126610777 0.0026912072037 0.018297574061 0.030727673735 -0.20742633354 -0.0083435278643 -0.028923417028 0.0075018989955 
-0.0016898825298 0.0010525176867 -0.023798791159 -0.00036065512896 0.00086628296076 -0.010336493954 0.028502264052 -0.027177574487 -0.025858255563 
0.020143490148 -0.017172653869 -0.012968952157 -0.22132284854 -0.13262573908 -0.073944755279 -0.27760322147 -0.031077234888 -0.057275868522 
0.010182888068 -0.037006099454 -0.026856843419 0.0081403738254 -0.01994102242 -0.0034963029752 -0.0037523501846 -0.011499972482 -0.0074604702264 
0.015468080433 -0.017539232952 0.0036428098218 0.01533310647 0.0019524217577 -0.0067719949147 0.012403269789 -0.016166182496 -0.10901998201 
0.055643664566 0.033227255629 -0.26132772424 0.025499506314 -0.01806795827 -0.017759276074 0.0026097721933 0.017490957785 -0.088869856947 
-0.0044070897294 0.050912535726 -0.12792352619 0.025774433753 -0.046502035267 -0.0070500959057 -0.35382278992 -0.14129122977 0.090450367756 
-0.0065740341791 -0.015210668392 -0.0027651125883 -0.0014858687959 -0.025329360288 -0.077983804803 -0.0044619596525 -0.0278322911 -0.019767719268 
-0.012319108259 -0.015991596656 -0.020809448888 -0.01308741763 -0.0129517624 0.0011096205872 0.0088349510179 0.008311733744 -0.058578474329 
-0.045091539426 -0.018456189967 -0.023823436932 0.023119003475 0.043859004654 -0.070055118689 0.030376750212 0.028603582991 -0.0090917337496 
0.045303518672 0.021081250278 0.04379006873 0.0016637880028 -0.030680079612 -0.0020557849458 0.021366971991 -0.026362592479 -0.029329289361 
0.0017164401633 -0.017281238212 -0.012864608324 -0.051241666915 -0.015117009707 -0.076830693884 0.0022965394123 0.070533894166 -0.031188549455 
0.014945695919 -0.059527263477 -0.019189306927 0.0063271659673 -0.032438970111 -0.0071145679116 0.03507678899 -0.024367484626 -0.053138018055 
-0.048063650746 -0.040844748479 -0.083859859667 0.055659933147 0.0045701953576 -0.028859463575 -0.0022031871783 -0.001504645275 -0.0048210899888 
0.053988233092 -0.046905538374 0.013068407119 0.013471326685 0.034497105745 -0.019340888205 -0.080667122998 0.04675101992 0.018540303395 
0.035836355511 -0.074373920536 -0.015758217016 0.040372963817 -0.038434071635 -0.088321358701 0.11056404204 0.14817632476 -0.42618101943 
-0.017368870564 -0.021596980411 -0.0078893219384 0.0077738539484 0.02527724808 -0.15212816483 0.032197264028 -0.015562404851 -0.061667591906 
-0.0099871750997 0.0027082147736 -0.0359235809 -0.02840984676 -0.015942705376 -0.011572466483 -0.45110325361 -0.28775223375 -0.07370821647 
0 0 -0.94551095 0 0 -0.94551095 0 0 -0.94551095 
0 0 -0.94551095 0 0 -0.94551095 0 0 -0.94551095 
-0.085794757021 -0.058781820327 -0.83689773856 0 0 -0.94551095 0 0 -0.94551095 
0.12123469554 0.019903559215 -0.9298764176 -0.44010187227 -0.064798626973 -0.35014490272 0 0 -0.94551095 
0 0 -0.94551095 0 0 -0.94551095 -0.23701420206 -0.09068890704 0.060925904468 
0 0 -0.94551095 -0.026314830555 -0.26174223723 -0.27092303803 0 0 -0.94551095 
0 0 -0.94551095 0 0 -0.94551095 0 0 -0.94551095 
0 0 -0.94551095 0 0 -0.94551095 0 0 -0.94551095 
0 0 -0.94551095 0 0 -0.94551095 0 0 -0.94551095 
0 0 -0.94551095 0 0 -0.94551095 0 0 -0.94551095 
0 0 -0.94551095 0 0 -0.94551095 0 0 -0.94551095 
0 0 -0.94551095 0.0024019573801 0.0023316793572 -0.95133957812 0 0 -0.94551095 
0 0 -0.94551095 0 0 -0.94551095 0 0 -0.94551095 
0 0 -0.94551095 0 0 -0.94551095 0 0 -0.94551095 
0 0 -0.94551095 0 0 -0.94551095 0 0 -0.94551095 
0 0 -0.94551095 0 0 -0.94551095 0 0 -0.94551095 
0 0 -0.94551095 0 0 -0.94551095 0 0 -0.94551095 
0 0 -0.94551095 0 0 -0.94551095 0 0 -0.94551095 
0 0 -0.94551095 0 0 -0.94551095 0 0 -0.94551095 
0 0 -0.94551095 -0.30762627204 -0.22204188241 0.30708712677 0 0 -0.65121095 
0 0 -0.65121095 0 0 -0.65121095 0 0 -0.65121095 
0 0 -0.65121095 0 0 -0.65121095 0 0 -0.65121095 
0 0 -0.65121095 0 0 -0.65121095 0 0 -0.65121095 
0 0 -0.65121095 0 0 -0.65121095 0 0 -0.65121095 
0 0 -0.65121095 0 0 -0.65121095 0 0 -0.65121095 
0 0 -0.65121095 0 0 -0.65121095 0 0 -0.65121095 