# vtk DataFile Version 5.1
Generated by LIGGGHTS
ASCII
DATASET POLYDATA
POINTS 750 float
-0.00444061 -0.00849451 0.0190253 0.0189126 -0.00926293 0.0190859 0.0257257 -0.00673546 0.018615 
-0.00308905 -0.00380005 0.0188676 0.0173189 -0.00472824 0.0187622 -0.00663779 -0.00190889 0.018687 
0.0218176 -0.00223372 0.0190596 0.00907973 -0.012607 0.0201614 0.0136075 -0.0131988 0.0195593 
0.0031541 -0.010225 0.0193233 0.0146819 -0.0110611 0.021442 0.0177222 -0.0116127 0.0211957 
0.00613848 -0.00768589 0.0193082 0.00833056 -0.00999546 0.0214674 0.0132038 -0.0084453 0.0204844 
0.0223219 -0.00913161 0.0205427 -0.00614196 -0.00689141 0.0212578 -0.0013582 -0.00669164 0.0195434 
0.00945297 -0.00566082 0.0196179 0.0195975 -0.00579634 0.0211905 0.00070096 -0.00418992 0.0205821 
0.00393469 -0.0043987 0.0213096 0.0116788 -0.00306992 0.0197255 0.0158318 -0.00304299 0.0215799 
0.0242298 -0.00424082 0.0202801 -0.009827 -0.00219253 0.0206443 0.00743962 -0.00219621 0.0193533 
0.0283209 -0.00187659 0.0206649 0.0114418 -0.0125728 0.0230482 0.00224067 -0.0108057 0.0233215 
0.00539417 -0.0105415 0.0230946 0.0205991 -0.0108807 0.0223868 -0.000963028 -0.00918224 0.0233302 
0.0239434 -0.00846644 0.023612 0.00158104 -0.00674479 0.0241883 0.011193 -0.00744003 0.0242643 
0.0149386 -0.00644234 0.0230431 0.0236584 -0.00525976 0.0234148 -0.00208666 -0.00463601 0.0223403 
0.01089 -0.00491448 0.0222068 0.0207465 -0.00256093 0.0228787 0.00592537 -0.00219775 0.022189 
0.0256047 -0.00198517 0.0241184 0.00827048 -0.0128912 0.0256562 0.0149613 -0.0119988 0.024474 
-0.00372367 -0.00863405 0.0256738 0.00895241 -0.00957662 0.0244727 0.0164703 -0.00858327 0.0246748 
0.0194273 -0.00907137 0.0257235 0.00751332 -0.00557911 0.0253104 -0.00456744 -0.00298205 0.0244022 
-0.00154496 -0.00334521 0.0253897 0.00350341 -0.00396545 0.0257993 0.0103342 -0.00253398 0.0249326 
0.0132701 -0.00445464 0.0246237 0.0171913 -0.00339789 0.0251468 -0.00831872 -0.00234028 0.0253103 
0.00112688 -0.00164233 0.0255722 0.00475761 -0.0101331 0.0397488 0.0125665 -0.0118252 0.039977 
0.0204447 -0.00931293 0.0392781 -0.00567764 -0.00574567 0.0392697 0.0262047 -0.00694784 0.0393038 
0.0126515 -0.00323688 0.0394226 0.0243015 -0.00308154 0.0399692 -0.00767912 -0.00239877 0.0401417 
0.00401553 -0.00180714 0.0392062 0.00811285 -0.0126997 0.0412412 0.00246058 -0.011993 0.0405923 
0.0136911 -0.0118027 0.0428995 0.0174812 -0.0114592 0.0416946 0.000241667 -0.00999196 0.0410635 
0.00738483 -0.00847299 0.0405346 0.0113803 -0.00766339 0.041925 0.0146435 -0.00952342 0.0409076 
0.0236103 -0.00806766 0.042183 -0.00446412 -0.00705109 0.0425668 -0.000168241 -0.00678797 0.0407229 
0.00455007 -0.00659164 0.0405284 0.0145403 -0.00500828 0.0415512 0.0190529 -0.00685491 0.040661 
0.0261811 -0.0060131 0.0429077 -0.00152737 -0.00463245 0.04258 0.00164698 -0.00428262 0.0423403 
0.00733822 -0.00345531 0.0420657 0.0212074 -0.00358288 0.0427131 -0.00267515 -0.00186049 0.0414243 
0.0152281 -0.00168563 0.0406944 0.0188427 -0.00160886 0.0409347 0.0278359 -0.00193898 0.0419931 
0.0108557 -0.0130225 0.0446057 -0.00135593 -0.0102451 0.0447058 0.0031002 -0.0119703 0.0441984 
0.0214977 -0.010071 0.0450873 0.000932189 -0.00830935 0.0442742 0.00531399 -0.00983203 0.0430605 
0.016268 -0.00845748 0.0444694 0.00634106 -0.00624058 0.0441653 0.0198474 -0.00616639 0.0454207 
-0.00802451 -0.00390219 0.0449932 -0.00397578 -0.00477323 0.0453549 0.0039497 -0.00372013 0.0449113 
0.0128955 -0.00290099 0.043039 -0.00508487 -0.00192815 0.0434017 0.000871003 -0.00181731 0.0454193 
0.0160105 -0.0017709 0.0453684 0.0236412 -0.00198971 0.0436973 0.00616146 -0.0118096 0.045471 
0.017761 -0.0106484 0.0460019 0.0039457 -0.00887507 0.045595 0.00883956 -0.00858141 0.0459223 
0.0118324 -0.00816733 0.0455767 0.00839743 -0.00282044 0.0456398 0.0113691 -0.0042154 0.0455673 
0.0209844 -0.00301942 0.0461746 0.0275825 -0.00486151 0.0462353 0.027952 -0.00174946 0.0456715 
0.0023089 -0.011819 0.0510201 0.0107075 -0.0104178 0.0509057 0.020135 -0.0106972 0.050648 
-0.00088254 -0.0083535 0.0510513 0.00450799 -0.00875778 0.0512163 0.00695685 -0.00636324 0.0511447 
0.00996765 -0.00560825 0.0506354 0.000269919 -0.00253987 0.0507897 0.0139483 -0.00476567 0.0514239 
0.0194432 -0.00398836 0.0509732 -0.00723867 -0.00161703 0.0508423 0.0293025 -0.00224623 0.0509138 
0.0105373 -0.013162 0.0535216 0.0150534 -0.0126471 0.0525484 0.00171744 -0.00900392 0.0532943 
0.00951497 -0.0080642 0.0525225 0.012606 -0.00794626 0.0541023 0.0165476 -0.00889946 0.0537776 
0.0216972 -0.00880215 0.0541207 -0.00515729 -0.00708521 0.0517273 0.00252443 -0.00506457 0.0524471 
0.0245803 -0.00726984 0.0530483 -0.00723029 -0.00435769 0.052735 -0.00459424 -0.00310115 0.0518525 
0.00725789 -0.00349915 0.0523993 0.017108 -0.00300195 0.0534559 0.0226114 -0.00453092 0.0517029 
-0.0020623 -0.0018087 0.0534234 0.0137614 -0.00222457 0.0536731 0.0226179 -0.0016597 0.0528033 
0.00968051 -0.0133938 0.0565228 0.00263912 -0.0118 0.0545698 0.00620913 -0.0114518 0.055363 
0.0129948 -0.0124193 0.0554764 0.0240832 -0.00862879 0.0565727 -0.00583245 -0.00628172 0.0546585 
-0.00237281 -0.00745794 0.0555942 0.000554968 -0.0052981 0.0558727 0.00378837 -0.00716791 0.0552801 
0.00668328 -0.0057114 0.054922 -0.00811056 -0.00275725 0.0552859 0.00976868 -0.0038265 0.0546441 
0.0266755 -0.00272967 0.0542815 -0.00109251 -0.00203691 0.0564038 0.00226019 -0.00241906 0.054573 
0.0298767 -0.00217891 0.0553238 -0.000353447 -0.0106154 0.0578158 0.0175912 -0.0121567 0.0571005 
0.011493 -0.00983807 0.0570153 0.0135313 -0.00754705 0.057163 0.0198704 -0.00990055 0.057011 
0.0201626 -0.00670628 0.0577593 -0.005487 -0.00451522 0.0578017 0.00933726 -0.00412522 0.0577113 
0.0268537 -0.00447958 0.0571796 0.00414641 -0.00186365 0.0577436 0.0160463 -0.00162992 0.0566869 
0.0206692 -0.0022492 0.0578109 0.0178199 0.00247639 0.0187962 -0.00928771 0.00451097 0.0188346 
-0.000440246 0.00404452 0.0189731 0.0239873 0.0065705 0.018699 0.0278546 0.00547307 0.018824 
-0.00475942 0.00940273 0.0190957 0.002791 0.00928186 0.0186592 0.00872615 0.0107417 0.0187922 
0.0228393 0.010498 0.0187643 0.0304404 0.0117205 0.0191374 -0.0112831 0.0141194 0.0186333 
-0.00413442 0.0125097 0.0188473 0.0151702 0.0138133 0.0187965 0.0268289 0.0132824 0.0192266 
-0.0067282 0.016887 0.0187685 0.00438335 0.0182199 0.0190896 0.00863461 0.0188759 0.0192557 
0.0230423 0.0183926 0.0186429 0.0250001 0.0215893 0.0190754 0.0291263 0.021302 0.0191931 
-5.18696e-05 0.0232594 0.0188663 0.00274765 0.0243798 0.0190519 0.000549495 0.0282511 0.0188858 
0.00599068 0.0282761 0.0190855 -0.00462621 0.0016248 0.0194872 -0.00113359 0.00197923 0.0215139 
0.0060063 0.00203512 0.0198361 0.013283 0.00165006 0.0207897 -0.00601226 0.00486932 0.0196598 
0.0235973 0.00386773 0.0200424 0.0275689 0.00389094 0.0215422 0.032064 0.00309082 0.0193044 
-0.0132591 0.00681884 0.0213165 -0.0024303 0.00630655 0.0212816 0.00644694 0.00605001 0.0193506 
0.013914 0.00541902 0.0193304 0.0186323 0.00578564 0.0198196 -0.00765109 0.00918223 0.0202698 
-0.000475454 0.00983608 0.0200724 0.0126647 0.0078517 0.021082 0.026528 0.00828879 0.0199654 
0.0322905 0.00800779 0.0206065 -0.0108937 0.0100196 0.0213127 0.00245509 0.0123432 0.0194338 
0.00575418 0.0108983 0.0206783 0.0102285 0.0106236 0.0216675 0.0181002 0.0108481 0.01958 
-0.0119614 0.0136265 0.0216629 -0.00120105 0.0132637 0.0196091 0.0126116 0.0125851 0.0208543 
0.0217895 0.0147509 0.0208086 -0.0120147 0.0170851 0.0196134 0.00175929 0.0163709 0.0200919 
0.0129035 0.0163645 0.019699 0.0174879 0.01635 0.0199558 0.0268293 0.0173995 0.01936 
0.0289889 0.0151195 0.0208495 0.00159293 0.0191699 0.0212478 0.0133113 0.0193738 0.0203038 
0.0203112 0.017756 0.0216646 0.0276684 0.0195699 0.0217141 0.0306997 0.0175015 0.0192974 
-0.00601677 0.0217518 0.0194677 -0.00306576 0.020186 0.0202793 0.0168129 0.0202362 0.0216713 
0.0196451 0.0216624 0.0199524 -0.00891125 0.0235847 0.0209452 0.0051068 0.0244823 0.0213189 
0.011012 0.0238926 0.0193214 0.0166108 0.0230118 0.0196449 0.0257559 0.023818 0.0212372 
-0.00399942 0.0256795 0.0201583 0.00367014 0.0272729 0.0217448 0.0145524 0.0264105 0.0205749 
0.0235368 0.0269292 0.0211377 -0.00210121 0.0280225 0.0210647 0.0223322 0.0297052 0.0216382 
0.000142147 0.03084 0.0207301 0.00352171 0.0310126 0.0198019 0.00764794 0.030742 0.0201648 
0.0117712 0.0301153 0.0207653 0.0148683 0.0323413 0.0199528 0.0188992 0.0301464 0.0203117 
0.00563407 0.032783 0.0213921 0.0121284 0.0333828 0.0216054 -0.0072233 0.00205248 0.0233103 
0.0223745 0.00172767 0.0235603 0.0311863 0.00174196 0.0221754 -0.010097 0.00316434 0.0224055 
-0.00462309 0.0032976 0.0223617 0.00254352 0.00277921 0.0230382 0.00889509 0.00329137 0.0224377 
0.0208128 0.003891 0.0218224 0.0319303 0.00492599 0.0218761 0.00131221 0.00654205 0.0221722 
0.00913933 0.00675024 0.0219139 0.0126556 0.00512 0.0235564 0.0160738 0.00502827 0.023046 
0.0204353 0.00726694 0.0231433 0.0280006 0.00736909 0.0236577 -0.00735968 0.00765031 0.0240821 
0.0059979 0.00814347 0.0221817 0.0156576 0.0082621 0.0218677 -0.00367945 0.0101822 0.0224262 
0.000185027 0.0103282 0.0232951 0.0125192 0.0102409 0.0242531 0.0179574 0.0101241 0.0232747 
0.0244518 0.0120754 0.0235647 0.0320944 0.0111736 0.0226687 -0.00820712 0.012544 0.0234076 
-0.00462224 0.0133122 0.0225835 -0.00126057 0.013054 0.02261 0.0153874 0.0148865 0.0221258 
0.0202572 0.0125564 0.0232571 0.0317288 0.0149596 0.0235243 -0.00868567 0.0174481 0.0228204 
-0.00563041 0.0172606 0.0227104 -0.0017541 0.016632 0.0241344 0.00635557 0.0161548 0.0227273 
0.00916087 0.0151741 0.0235389 0.0176129 0.0173482 0.0231719 0.0235866 0.017148 0.021817 
0.0259278 0.0166736 0.0239095 -0.0113541 0.0189892 0.0236323 -0.00899477 0.020978 0.0235222 
-0.00438068 0.0202617 0.0242044 0.00341079 0.0210529 0.0230776 0.00695686 0.0202072 0.0223031 
0.0099646 0.0210009 0.0235206 0.0193773 0.0207697 0.0234841 0.0294477 0.0224754 0.024121 
-0.00412156 0.02381 0.0226699 0.0121574 0.0240893 0.0239439 0.0189909 0.0242951 0.0222783 
[...]
POINT_DATA 750
FIELD FieldData 7
id 1 750 int
41 45 9 29 7 51 19 10 18 
49 56 3 26 22 13 48 40 58 
25 4 2 16 38 55 21 23 44 
34 12 20 1 27 24 32 17 31 
30 15 47 50 42 6 39 52 37 
36 5 46 53 35 11 54 28 8 
33 14 57 43 263 290 294 302 260 
300 274 291 308 280 254 301 297 266 
251 295 285 264 270 253 268 269 273 
305 255 287 265 281 276 299 289 309 
262 282 252 272 298 256 257 278 284 
259 293 283 271 304 303 288 261 267 
296 306 277 258 275 286 307 292 279 
531 520 501 524 548 528 532 536 517 
556 529 554 558 504 508 552 526 518 
521 549 534 503 507 506 545 513 512 
541 557 547 551 515 535 544 533 502 
525 522 540 542 519 539 527 505 510 
511 509 543 555 516 546 538 523 553 
530 537 550 514 138 101 73 242 234 
85 61 243 157 169 244 210 250 80 
163 64 180 97 196 168 106 184 98 
148 191 205 104 132 89 66 65 160 
144 122 209 212 202 128 237 63 149 
230 215 100 145 206 112 216 152 189 
222 137 120 211 238 90 146 110 126 
179 121 226 127 182 249 95 197 77 
188 159 133 143 236 140 170 177 171 
187 156 139 91 207 134 239 233 232 
186 141 83 102 235 68 72 136 118 
113 129 67 131 92 96 220 161 108 
70 213 99 165 74 88 150 217 62 
147 59 223 194 227 87 116 154 208 
109 124 79 221 75 231 84 167 219 
86 174 192 190 225 151 153 224 111 
176 107 164 247 199 69 119 218 214 
172 246 158 185 193 173 94 130 93 
248 229 135 204 123 142 198 183 166 
203 78 178 175 181 241 155 201 245 
115 60 71 82 114 228 240 103 105 
117 162 195 81 76 200 125 416 397 
469 499 380 423 331 398 384 433 354 
453 493 455 466 352 476 317 405 497 
492 428 415 490 409 462 368 472 427 
471 467 385 394 322 444 366 430 447 
367 463 418 484 437 353 325 334 500 
459 369 434 383 357 449 378 363 452 
359 429 338 314 413 313 333 475 425 
498 470 396 448 343 350 473 361 327 
488 342 408 346 387 386 481 465 332 
412 310 379 400 436 364 376 399 341 
451 315 349 326 360 370 320 392 487 
339 486 323 457 468 440 482 344 365 
330 328 450 382 316 460 438 454 362 
445 374 403 456 340 311 421 337 494 
312 373 411 420 348 371 406 391 377 
395 336 319 318 347 435 407 404 495 
485 464 390 442 458 388 381 402 432 
426 439 372 329 351 441 401 443 477 
393 417 389 335 419 355 489 410 345 
358 446 324 424 321 480 375 478 461 
483 414 474 479 491 356 422 496 431 
698 703 695 747 678 670 656 727 593 
619 625 707 606 682 654 650 599 624 
700 713 742 585 598 743 672 586 590 
674 576 702 618 734 616 638 696 735 
571 640 649 642 685 679 711 645 655 
566 724 579 563 607 718 584 736 561 
562 610 721 710 723 622 634 748 715 
570 714 691 697 722 595 662 644 559 
728 628 750 604 740 560 592 631 564 
690 652 574 573 603 613 749 709 648 
632 647 701 596 673 629 659 738 730 
680 611 664 669 582 653 658 609 626 
591 637 692 719 683 605 636 614 578 
660 739 588 594 725 600 587 741 581 
575 597 643 620 651 608 708 615 746 
639 686 681 693 565 577 601 675 732 
689 688 633 717 731 744 627 684 705 
589 666 569 657 726 677 671 630 580 
617 745 568 583 706 737 646 733 694 
676 667 665 621 712 687 716 602 661 
720 623 635 668 641 729 699 612 704 
567 663 572 
type 1 750 int
1 1 1 1 1 1 1 1 1 
1 1 1 1 1 1 1 1 1 
1 1 1 1 1 1 1 1 1 
1 1 1 1 1 1 1 1 1 
1 1 1 1 1 1 1 1 1 
1 1 1 1 1 1 1 1 1 
1 1 1 1 1 1 1 1 1 
1 1 1 1 1 1 1 1 1 
1 1 1 1 1 1 1 1 1 
1 1 1 1 1 1 1 1 1 
1 1 1 1 1 1 1 1 1 
1 1 1 1 1 1 1 1 1 
1 1 1 1 1 1 1 1 1 
1 1 1 1 1 1 1 1 1 
1 1 1 1 1 1 1 1 1 
1 1 1 1 1 1 1 1 1 
1 1 1 1 1 1 1 1 1 
1 1 1 1 1 1 1 1 1 
1 1 1 1 1 1 1 1 1 
1 1 1 1 1 1 1 1 1 
1 1 1 1 1 1 1 1 1 
1 1 1 1 1 1 1 1 1 
1 1 1 1 1 1 1 1 1 
1 1 1 1 1 1 1 1 1 
1 1 1 1 1 1 1 1 1 
1 1 1 1 1 1 1 1 1 
1 1 1 1 1 1 1 1 1 
1 1 1 1 1 1 1 1 1 
1 1 1 1 1 1 1 1 1 
1 1 1 1 1 1 1 1 1 
1 1 1 1 1 1 1 1 1 
1 1 1 1 1 1 1 1 1 
1 1 1 1 1 1 1 1 1 
1 1 1 1 1 1 1 1 1 
1 1 1 1 1 1 1 1 1 
1 1 1 1 1 1 1 1 1 
1 1 1 1 1 1 1 1 1 
1 1 1 1 1 1 1 1 1 
1 1 1 1 1 1 1 1 1 
1 1 1 1 1 1 1 1 1 
1 1 1 1 1 1 1 1 1 
1 1 1 1 1 1 1 1 1 
1 1 1 1 1 1 1 1 1 
1 1 1 1 1 1 1 1 1 
1 1 1 1 1 1 1 1 1 
1 1 1 1 1 1 1 1 1 
1 1 1 1 1 1 1 1 1 
1 1 1 1 1 1 1 1 1 
1 1 1 1 1 1 1 1 1 
1 1 1 1 1 1 1 1 1 
1 1 1 1 1 1 1 1 1 
1 1 1 1 1 1 1 1 1 
1 1 1 1 1 1 1 1 1 
1 1 1 1 1 1 1 1 1 
1 1 1 1 1 1 1 1 1 
1 1 1 1 1 1 1 1 1 
1 1 1 1 1 1 1 1 1 
1 1 1 1 1 1 1 1 1 
1 1 1 1 1 1 1 1 1 
1 1 1 1 1 1 1 1 1 
1 1 1 1 1 1 1 1 1 
1 1 1 1 1 1 1 1 1 
1 1 1 1 1 1 1 1 1 
1 1 1 1 1 1 1 1 1 
1 1 1 1 1 1 1 1 1 
1 1 1 1 1 1 1 1 1 
1 1 1 1 1 1 1 1 1 
1 1 1 1 1 1 1 1 1 
1 1 1 1 1 1 1 1 1 
1 1 1 1 1 1 1 1 1 
1 1 1 1 1 1 1 1 1 
1 1 1 1 1 1 1 1 1 
1 1 1 1 1 1 1 1 1 
1 1 1 1 1 1 1 1 1 
1 1 1 1 1 1 1 1 1 
1 1 1 1 1 1 1 1 1 
1 1 1 1 1 1 1 1 1 
1 1 1 1 1 1 1 1 1 
1 1 1 1 1 1 1 1 1 
1 1 1 1 1 1 1 1 1 
1 1 1 1 1 1 1 1 1 
1 1 1 1 1 1 1 1 1 
1 1 1 1 1 1 1 1 1 
1 1 1 
i 3 750 int
0 0 0 0 0 0 0 0 0 
0 0 0 0 0 0 0 0 0 
0 0 0 0 0 0 0 0 0 
0 0 0 0 0 0 0 0 0 
0 0 0 0 0 0 0 0 0 
0 0 0 0 0 0 0 0 0 
0 0 0 0 0 0 0 0 0 
0 0 0 0 0 0 0 0 0 
0 0 0 0 0 0 0 0 0 
0 0 0 0 0 0 0 0 0 
0 0 0 0 0 0 0 0 0 
0 0 0 0 0 0 0 0 0 
0 0 0 0 0 0 0 0 0 
0 0 0 0 0 0 0 0 0 
0 0 0 0 0 0 0 0 0 
0 0 0 0 0 0 0 0 0 
0 0 0 0 0 0 0 0 0 
0 0 0 0 0 0 0 0 0 
0 0 0 0 0 0 0 0 0 
0 0 0 0 0 0 0 0 0 
0 0 0 0 0 0 0 0 0 
0 0 0 0 0 0 0 0 0 
0 0 0 0 0 0 0 0 0 
0 0 0 0 0 0 0 0 0 
0 0 0 0 0 0 0 0 0 
0 0 0 0 0 0 0 0 0 
0 0 0 0 0 0 0 0 0 
0 0 0 0 0 0 0 0 0 
0 0 0 0 0 0 0 0 0 
0 0 0 0 0 0 0 0 0 
0 0 0 0 0 0 0 0 0 
0 0 0 0 0 0 0 0 0 
0 0 0 0 0 0 0 0 0 
0 0 0 0 0 0 0 0 0 
0 0 0 0 0 0 0 0 0 
0 0 0 0 0 0 0 0 0 
0 0 0 0 0 0 0 0 0 
0 0 0 0 0 0 0 0 0 
0 0 0 0 0 0 0 0 0 
0 0 0 0 0 0 0 0 0 
0 0 0 0 0 0 0 0 0 
0 0 0 0 0 0 0 0 0 
0 0 0 0 0 0 0 0 0 
0 0 0 0 0 0 0 0 0 
0 0 0 0 0 0 0 0 0 
0 0 0 0 0 0 0 0 0 
0 0 0 0 0 0 0 0 0 
0 0 0 0 0 0 0 0 0 
0 0 0 0 0 0 0 0 0 
0 0 0 0 0 0 0 0 0 
0 0 0 0 0 0 0 0 0 
0 0 0 0 0 0 0 0 0 
0 0 0 0 0 0 0 0 0 
0 0 0 0 0 0 0 0 0 
0 0 0 0 0 0 0 0 0 
0 0 0 0 0 0 0 0 0 
0 0 0 0 0 0 0 0 0 
0 0 0 0 0 0 0 0 0 
0 0 0 0 0 0 0 0 0 
0 0 0 0 0 0 0 0 0 
0 0 0 0 0 0 0 0 0 
0 0 0 0 0 0 0 0 0 
0 0 0 0 0 0 0 0 0 
0 0 0 0 0 0 0 0 0 
0 0 0 0 0 0 0 0 0 
0 0 0 0 0 0 0 0 0 
0 0 0 0 0 0 0 0 0 
0 0 0 0 0 0 0 0 0 
0 0 0 0 0 0 0 0 0 
0 0 0 0 0 0 0 0 0 
0 0 0 0 0 0 0 0 0 
0 0 0 0 0 0 0 0 0 
0 0 0 0 0 0 0 0 0 
0 0 0 0 0 0 0 0 0 
0 0 0 0 0 0 0 0 0 
0 0 0 0 0 0 0 0 0 
0 0 0 0 0 0 0 0 0 
0 0 0 0 0 0 0 0 0 
0 0 0 0 0 0 0 0 0 
0 0 0 0 0 0 0 0 0 
0 0 0 0 0 0 0 0 0 
0 0 0 0 0 0 0 0 0 
0 0 0 0 0 0 0 0 0 
0 0 0 0 0 0 0 0 0 
0 0 0 0 0 0 0 0 0 
0 0 0 0 0 0 0 0 0 
0 0 0 0 0 0 0 0 0 
0 0 0 0 0 0 0 0 0 
0 0 0 0 0 0 0 0 0 
0 0 0 0 0 0 0 0 0 
0 0 0 0 0 0 0 0 0 
0 0 0 0 0 0 0 0 0 
0 0 0 0 0 0 0 0 0 
0 0 0 0 0 0 0 0 0 
0 0 0 0 0 0 0 0 0 
0 0 0 0 0 0 0 0 0 
0 0 0 0 0 0 0 0 0 
0 0 0 0 0 0 0 0 0 
0 0 0 0 0 0 0 0 0 
0 0 0 0 0 0 0 0 0 
0 0 0 0 0 0 0 0 0 
0 0 0 0 0 0 0 0 0 
0 0 0 0 0 0 0 0 0 
0 0 0 0 0 0 0 0 0 
0 0 0 0 0 0 0 0 0 
0 0 0 0 0 0 0 0 0 
0 0 0 0 0 0 0 0 0 
0 0 0 0 0 0 0 0 0 
0 0 0 0 0 0 0 0 0 
0 0 0 0 0 0 0 0 0 
0 0 0 0 0 0 0 0 0 
0 0 0 0 0 0 0 0 0 
0 0 0 0 0 0 0 0 0 
0 0 0 0 0 0 0 0 0 
0 0 0 0 0 0 0 0 0 
0 0 0 0 0 0 0 0 0 
0 0 0 0 0 0 0 0 0 
0 0 0 0 0 0 0 0 0 
0 0 0 0 0 0 0 0 0 
0 0 0 0 0 0 0 0 0 
0 0 0 0 0 0 0 0 0 
0 0 0 0 0 0 0 0 0 
0 0 0 0 0 0 0 0 0 
0 0 0 0 0 0 0 0 0 
0 0 0 0 0 0 0 0 0 
0 0 0 0 0 0 0 0 0 
0 0 0 0 0 0 0 0 0 
0 0 0 0 0 0 0 0 0 
0 0 0 0 0 0 0 0 0 
0 0 0 0 0 0 0 0 0 
0 0 0 0 0 0 0 0 0 
0 0 0 0 0 0 0 0 0 
0 0 0 0 0 0 0 0 0 
0 0 0 0 0 0 0 0 0 
0 0 0 0 0 0 0 0 0 
0 0 0 0 0 0 0 0 0 
0 0 0 0 0 0 0 0 0 
0 0 0 0 0 0 0 0 0 
0 0 0 0 0 0 0 0 0 
0 0 0 0 0 0 0 0 0 
0 0 0 0 0 0 0 0 0 
0 0 0 0 0 0 0 0 0 
0 0 0 0 0 0 0 0 0 
0 0 0 0 0 0 0 0 0 
0 0 0 0 0 0 0 0 0 
0 0 0 0 0 0 0 0 0 
0 0 0 0 0 0 0 0 0 
0 0 0 0 0 0 0 0 0 
0 0 0 0 0 0 0 0 0 
0 0 0 0 0 0 0 0 0 
0 0 0 0 0 0 0 0 0 
0 0 0 0 0 0 0 0 0 
0 0 0 0 0 0 0 0 0 
0 0 0 0 0 0 0 0 0 
0 0 0 0 0 0 0 0 0 
0 0 0 0 0 0 0 0 0 
0 0 0 0 0 0 0 0 0 
0 0 0 0 0 0 0 0 0 
0 0 0 0 0 0 0 0 0 
0 0 0 0 0 0 0 0 0 
0 0 0 0 0 0 0 0 0 
0 0 0 0 0 0 0 0 0 
0 0 0 0 0 0 0 0 0 
0 0 0 0 0 0 0 0 0 
0 0 0 0 0 0 0 0 0 
0 0 0 0 0 0 0 0 0 
0 0 0 0 0 0 0 0 0 
0 0 0 0 0 0 0 0 0 
0 0 0 0 0 0 0 0 0 
0 0 0 0 0 0 0 0 0 
0 0 0 0 0 0 0 0 0 
0 0 0 0 0 0 0 0 0 
0 0 0 0 0 0 0 0 0 
0 0 0 0 0 0 0 0 0 
0 0 0 0 0 0 0 0 0 
0 0 0 0 0 0 0 0 0 
0 0 0 0 0 0 0 0 0 
0 0 0 0 0 0 0 0 0 
0 0 0 0 0 0 0 0 0 
0 0 0 0 0 0 0 0 0 
0 0 0 0 0 0 0 0 0 
0 0 0 0 0 0 0 0 0 
0 0 0 0 0 0 0 0 0 
0 0 0 0 0 0 0 0 0 
0 0 0 0 0 0 0 0 0 
0 0 0 0 0 0 0 0 0 
0 0 0 0 0 0 0 0 0 
0 0 0 0 0 0 0 0 0 
0 0 0 0 0 0 0 0 0 
0 0 0 0 0 0 0 0 0 
0 0 0 0 0 0 0 0 0 
0 0 0 0 0 0 0 0 0 
0 0 0 0 0 0 0 0 0 
0 0 0 0 0 0 0 0 0 
0 0 0 0 0 0 0 0 0 
0 0 0 0 0 0 0 0 0 
0 0 0 0 0 0 0 0 0 
0 0 0 0 0 0 0 0 0 
0 0 0 0 0 0 0 0 0 
0 0 0 0 0 0 0 0 0 
0 0 0 0 0 0 0 0 0 
0 0 0 0 0 0 0 0 0 
0 0 0 0 0 0 0 0 0 
0 0 0 0 0 0 0 0 0 
0 0 0 0 0 0 0 0 0 
0 0 0 0 0 0 0 0 0 
0 0 0 0 0 0 0 0 0 
0 0 0 0 0 0 0 0 0 
0 0 0 0 0 0 0 0 0 
0 0 0 0 0 0 0 0 0 
0 0 0 0 0 0 0 0 0 
0 0 0 0 0 0 0 0 0 
0 0 0 0 0 0 0 0 0 
0 0 0 0 0 0 0 0 0 
0 0 0 0 0 0 0 0 0 
0 0 0 0 0 0 0 0 0 
0 0 0 0 0 0 0 0 0 
0 0 0 0 0 0 0 0 0 
0 0 0 0 0 0 0 0 0 
0 0 0 0 0 0 0 0 0 
0 0 0 0 0 0 0 0 0 
0 0 0 0 0 0 0 0 0 
0 0 0 0 0 0 0 0 0 
0 0 0 0 0 0 0 0 0 
0 0 0 0 0 0 0 0 0 
0 0 0 0 0 0 0 0 0 
0 0 0 0 0 0 0 0 0 
0 0 0 0 0 0 0 0 0 
0 0 0 0 0 0 0 0 0 
0 0 0 0 0 0 0 0 0 
0 0 0 0 0 0 0 0 0 
0 0 0 0 0 0 0 0 0 
0 0 0 0 0 0 0 0 0 
0 0 0 0 0 0 0 0 0 
0 0 0 0 0 0 0 0 0 
0 0 0 0 0 0 0 0 0 
0 0 0 0 0 0 0 0 0 
0 0 0 0 0 0 0 0 0 
0 0 0 0 0 0 0 0 0 
0 0 0 0 0 0 0 0 0 
0 0 0 0 0 0 0 0 0 
0 0 0 0 0 0 0 0 0 
0 0 0 0 0 0 0 0 0 
0 0 0 0 0 0 0 0 0 
0 0 0 0 0 0 0 0 0 
0 0 0 0 0 0 0 0 0 
0 0 0 0 0 0 0 0 0 
0 0 0 0 0 0 0 0 0 
0 0 0 0 0 0 0 0 0 
0 0 0 0 0 0 0 0 0 

v 3 750 double
0 0 -0.82779095 0 0 -0.82779095 0 0 -0.82779095 
0 0 -0.82779095 0 0 -0.82779095 0 0 -0.82779095 
0 0 -0.82779095 0 0 -0.82779095 0 0 -0.82779095 
0 0 -0.82779095 0 0 -0.82779095 0 0 -0.82779095 
0 0 -0.82779095 0 0 -0.82779095 0 0 -0.82779095 
0 0 -0.82779095 0 0 -0.82779095 0 0 -0.82779095 
0 0 -0.82779095 0 0 -0.82779095 0 0 -0.82779095 
0 0 -0.82779095 0 0 -0.82779095 0 0 -0.82779095 
0 0 -0.82779095 0 0 -0.82779095 0 0 -0.82779095 
0 0 -0.82779095 0 0 -0.82779095 0 0 -0.82779095 
0 0 -0.82779095 0 0 -0.82779095 0 0 -0.82779095 
0 0 -0.82779095 0 0 -0.82779095 0 0 -0.82779095 
0 0 -0.82779095 0 0 -0.82779095 0 0 -0.82779095 
0 0 -0.82779095 0 0 -0.82779095 0 0 -0.82779095 
0 0 -0.82779095 0 0 -0.82779095 0 0 -0.82779095 
0 0 -0.82779095 0 0 -0.82779095 0 0 -0.82779095 
0 0 -0.82779095 0 0 -0.82779095 0 0 -0.82779095 
0 0 -0.82779095 0 0 -0.82779095 0 0 -0.82779095 
0 0 -0.82779095 0 0 -0.82779095 0 0 -0.82779095 
0 0 -0.82779095 0 0 -0.53349095 0 0 -0.53349095 
0 0 -0.53349095 0 0 -0.53349095 0 0 -0.53349095 
0 0 -0.53349095 0 0 -0.53349095 0 0 -0.53349095 
0 0 -0.53349095 0 0 -0.53349095 0 0 -0.53349095 
0 0 -0.53349095 0 0 -0.53349095 0 0 -0.53349095 
0 0 -0.53349095 0 0 -0.53349095 0 0 -0.53349095 
0 0 -0.53349095 0 0 -0.53349095 0 0 -0.53349095 
0 0 -0.53349095 0 0 -0.53349095 0 0 -0.53349095 
0 0 -0.53349095 0 0 -0.53349095 0 0 -0.53349095 
0 0 -0.53349095 0 0 -0.53349095 0 0 -0.53349095 
0 0 -0.53349095 0 0 -0.53349095 0 0 -0.53349095 
0 0 -0.53349095 0 0 -0.53349095 0 0 -0.53349095 
0 0 -0.53349095 0 0 -0.53349095 0 0 -0.53349095 
0 0 -0.53349095 0 0 -0.53349095 0 0 -0.53349095 
0 0 -0.53349095 0 0 -0.53349095 0 0 -0.53349095 
0 0 -0.53349095 0 0 -0.53349095 0 0 -0.53349095 
0 0 -0.53349095 0 0 -0.53349095 0 0 -0.53349095 
0 0 -0.53349095 0 0 -0.53349095 0 0 -0.53349095 
0 0 -0.53349095 0 0 -0.53349095 0 0 -0.53349095 
0 0 -0.53349095 0 0 -0.53349095 0 0 -0.53349095 
0 0 -0.23919095 0 0 -0.23919095 0 0 -0.23919095 
0 0 -0.23919095 0 0 -0.23919095 0 0 -0.23919095 
0 0 -0.23919095 0 0 -0.23919095 0 0 -0.23919095 
0 0 -0.23919095 0 0 -0.23919095 0 0 -0.23919095 
0 0 -0.23919095 0 0 -0.23919095 0 0 -0.23919095 
0 0 -0.23919095 0 0 -0.23919095 0 0 -0.23919095 
0 0 -0.23919095 0 0 -0.23919095 0 0 -0.23919095 
0 0 -0.23919095 0 0 -0.23919095 0 0 -0.23919095 
0 0 -0.23919095 0 0 -0.23919095 0 0 -0.23919095 
0 0 -0.23919095 0 0 -0.23919095 0 0 -0.23919095 
0 0 -0.23919095 0 0 -0.23919095 0 0 -0.23919095 
0 0 -0.23919095 0 0 -0.23919095 0 0 -0.23919095 
0 0 -0.23919095 0 0 -0.23919095 0 0 -0.23919095 
0 0 -0.23919095 0 0 -0.23919095 0 0 -0.23919095 
0 0 -0.23919095 0 0 -0.23919095 0 0 -0.23919095 
0 0 -0.23919095 0 0 -0.23919095 0 0 -0.23919095 
0 0 -0.23919095 0 0 -0.23919095 0 0 -0.23919095 
0 0 -0.23919095 0 0 -0.23919095 0 0 -0.23919095 
0 0 -0.23919095 0 0 -0.23919095 0 0 -0.23919095 
0 0 -0.23919095 0 0 -0.82779095 0 0 -0.82779095 
0 0 -0.82779095 0 0 -0.82779095 0 0 -0.82779095 
0 0 -0.82779095 0 0 -0.82779095 0 0 -0.82779095 
0 0 -0.82779095 0 0 -0.82779095 0 0 -0.82779095 
0 0 -0.82779095 0 0 -0.82779095 0 0 -0.82779095 
0 0 -0.82779095 0 0 -0.82779095 0 0 -0.82779095 
0 0 -0.82779095 0 0 -0.82779095 0 0 -0.82779095 
0 0 -0.82779095 0 0 -0.82779095 0 0 -0.82779095 
0 0 -0.82779095 0 0 -0.82779095 0 0 -0.82779095 
0 0 -0.82779095 0 0 -0.82779095 0 0 -0.82779095 
0 0 -0.82779095 0 0 -0.82779095 0 0 -0.82779095 
0 0 -0.82779095 0 0 -0.82779095 0 0 -0.82779095 
0 0 -0.82779095 0 0 -0.82779095 0 0 -0.82779095 
0 0 -0.82779095 0 0 -0.82779095 0 0 -0.82779095 
0 0 -0.82779095 0 0 -0.82779095 0 0 -0.82779095 
0 0 -0.82779095 0 0 -0.82779095 0 0 -0.82779095 
0 0 -0.82779095 0 0 -0.82779095 0 0 -0.82779095 
0 0 -0.82779095 0 0 -0.82779095 0 0 -0.82779095 
0 0 -0.82779095 0 0 -0.82779095 0 0 -0.82779095 
0 0 -0.82779095 0 0 -0.82779095 0 0 -0.82779095 
0 0 -0.82779095 0 0 -0.82779095 0 0 -0.82779095 
0 0 -0.82779095 0 0 -0.82779095 0 0 -0.82779095 
0 0 -0.82779095 0 0 -0.82779095 0 0 -0.82779095 
0 0 -0.82779095 0 0 -0.82779095 0 0 -0.82779095 
0 0 -0.82779095 0 0 -0.82779095 0 0 -0.82779095 
0 0 -0.82779095 0 0 -0.82779095 0 0 -0.82779095 
0 0 -0.82779095 0 0 -0.82779095 0 0 -0.82779095 
0 0 -0.82779095 0 0 -0.82779095 0 0 -0.82779095 
0 0 -0.82779095 0 0 -0.82779095 0 0 -0.82779095 
0 0 -0.82779095 0 0 -0.82779095 0 0 -0.82779095 
0 0 -0.82779095 0 0 -0.82779095 0 0 -0.82779095 
0 0 -0.82779095 0 0 -0.82779095 0 0 -0.82779095 
0 0 -0.82779095 0 0 -0.82779095 0 0 -0.82779095 
0 0 -0.82779095 0 0 -0.82779095 0 0 -0.82779095 
0 0 -0.82779095 0 0 -0.82779095 0 0 -0.82779095 
0 0 -0.82779095 0 0 -0.82779095 0 0 -0.82779095 
0 0 -0.82779095 0 0 -0.82779095 0 0 -0.82779095 
0 0 -0.82779095 0 0 -0.82779095 0 0 -0.82779095 
0 0 -0.82779095 0 0 -0.82779095 0 0 -0.82779095 
0 0 -0.82779095 0 0 -0.82779095 0 0 -0.82779095 
0 0 -0.82779095 0 0 -0.82779095 0 0 -0.82779095 
0 0 -0.82779095 0 0 -0.82779095 0 0 -0.82779095 
0 0 -0.82779095 0 0 -0.82779095 0 0 -0.82779095 
0 0 -0.82779095 0 0 -0.82779095 0 0 -0.82779095 
0 0 -0.82779095 0 0 -0.82779095 0 0 -0.82779095 
0 0 -0.82779095 0 0 -0.82779095 0 0 -0.82779095 
0 0 -0.82779095 0 0 -0.82779095 0 0 -0.82779095 
0 0 -0.82779095 0 0 -0.82779095 0 0 -0.82779095 
0 0 -0.82779095 0 0 -0.82779095 0 0 -0.82779095 
0 0 -0.82779095 0 0 -0.82779095 0 0 -0.82779095 
0 0 -0.82779095 0 0 -0.82779095 0 0 -0.82779095 
0 0 -0.82779095 0 0 -0.82779095 0 0 -0.82779095 
0 0 -0.82779095 0 0 -0.82779095 0 0 -0.82779095 
0 0 -0.82779095 0 0 -0.82779095 0 0 -0.82779095 
0 0 -0.82779095 0 0 -0.82779095 0 0 -0.82779095 
0 0 -0.82779095 0 0 -0.82779095 0 0 -0.82779095 
0 0 -0.82779095 0 0 -0.82779095 0 0 -0.82779095 
0 0 -0.82779095 0 0 -0.82779095 0 0 -0.82779095 
0 0 -0.82779095 0 0 -0.82779095 0 0 -0.82779095 
0 0 -0.82779095 0 0 -0.82779095 0 0 -0.82779095 
0 0 -0.82779095 0 0 -0.82779095 0 0 -0.82779095 
0 0 -0.82779095 0 0 -0.82779095 0 0 -0.82779095 
0 0 -0.82779095 0 0 -0.82779095 0 0 -0.82779095 
0 0 -0.82779095 0 0 -0.82779095 0 0 -0.82779095 
0 0 -0.82779095 0 0 -0.53349095 0 0 -0.53349095 
0 0 -0.53349095 0 0 -0.53349095 0 0 -0.53349095 
0 0 -0.53349095 0 0 -0.53349095 0 0 -0.53349095 
0 0 -0.53349095 0 0 -0.53349095 0 0 -0.53349095 
0 0 -0.53349095 0 0 -0.53349095 0 0 -0.53349095 
0 0 -0.53349095 0 0 -0.53349095 0 0 -0.53349095 
0 0 -0.53349095 0 0 -0.53349095 0 0 -0.53349095 
0 0 -0.53349095 0 0 -0.53349095 0 0 -0.53349095 
0 0 -0.53349095 0 0 -0.53349095 0 0 -0.53349095 
0 0 -0.53349095 0 0 -0.53349095 0 0 -0.53349095 
0 0 -0.53349095 0 0 -0.53349095 0 0 -0.53349095 
0 0 -0.53349095 0 0 -0.53349095 0 0 -0.53349095 
0 0 -0.53349095 0 0 -0.53349095 0 0 -0.53349095 
0 0 -0.53349095 0 0 -0.53349095 0 0 -0.53349095 
0 0 -0.53349095 0 0 -0.53349095 0 0 -0.53349095 
0 0 -0.53349095 0 0 -0.53349095 0 0 -0.53349095 
0 0 -0.53349095 0 0 -0.53349095 0 0 -0.53349095 
0 0 -0.53349095 0 0 -0.53349095 0 0 -0.53349095 
0 0 -0.53349095 0 0 -0.53349095 0 0 -0.53349095 
0 0 -0.53349095 0 0 -0.53349095 0 0 -0.53349095 
0 0 -0.53349095 0 0 -0.53349095 0 0 -0.53349095 
0 0 -0.53349095 0 0 -0.53349095 0 0 -0.53349095 
0 0 -0.53349095 0 0 -0.53349095 0 0 -0.53349095 
0 0 -0.53349095 0 0 -0.53349095 0 0 -0.53349095 
0 0 -0.53349095 0 0 -0.53349095 0 0 -0.53349095 
0 0 -0.53349095 0 0 -0.53349095 0 0 -0.53349095 
0 0 -0.53349095 0 0 -0.53349095 0 0 -0.53349095 
0 0 -0.53349095 0 0 -0.53349095 0 0 -0.53349095 
0 0 -0.53349095 0 0 -0.53349095 0 0 -0.53349095 
0 0 -0.53349095 0 0 -0.53349095 0 0 -0.53349095 
0 0 -0.53349095 0 0 -0.53349095 0 0 -0.53349095 
0 0 -0.53349095 0 0 -0.53349095 0 0 -0.53349095 
0 0 -0.53349095 0 0 -0.53349095 0 0 -0.53349095 
0 0 -0.53349095 0 0 -0.53349095 0 0 -0.53349095 
0 0 -0.53349095 0 0 -0.53349095 0 0 -0.53349095 
0 0 -0.53349095 0 0 -0.53349095 0 0 -0.53349095 
0 0 -0.53349095 0 0 -0.53349095 0 0 -0.53349095 
0 0 -0.53349095 0 0 -0.53349095 0 0 -0.53349095 
0 0 -0.53349095 0 0 -0.53349095 0 0 -0.53349095 
0 0 -0.53349095 0 0 -0.53349095 0 0 -0.53349095 
0 0 -0.53349095 0 0 -0.53349095 0 0 -0.53349095 
0 0 -0.53349095 0 0 -0.53349095 0 0 -0.53349095 
0 0 -0.53349095 0 0 -0.53349095 0 0 -0.53349095 
0 0 -0.53349095 0 0 -0.53349095 0 0 -0.53349095 
0 0 -0.53349095 0 0 -0.53349095 0 0 -0.53349095 
0 0 -0.53349095 0 0 -0.53349095 0 0 -0.53349095 
0 0 -0.53349095 0 0 -0.53349095 0 0 -0.53349095 
0 0 -0.53349095 0 0 -0.53349095 0 0 -0.53349095 
0 0 -0.53349095 0 0 -0.53349095 0 0 -0.53349095 
0 0 -0.53349095 0 0 -0.53349095 0 0 -0.53349095 
0 0 -0.53349095 0 0 -0.53349095 0 0 -0.53349095 
0 0 -0.53349095 0 0 -0.53349095 0 0 -0.53349095 
0 0 -0.53349095 0 0 -0.53349095 0 0 -0.53349095 
0 0 -0.53349095 0 0 -0.53349095 0 0 -0.53349095 
0 0 -0.53349095 0 0 -0.53349095 0 0 -0.53349095 
0 0 -0.53349095 0 0 -0.53349095 0 0 -0.53349095 
0 0 -0.53349095 0 0 -0.53349095 0 0 -0.53349095 
0 0 -0.53349095 0 0 -0.53349095 0 0 -0.53349095 
0 0 -0.53349095 0 0 -0.53349095 0 0 -0.53349095 
0 0 -0.53349095 0 0 -0.53349095 0 0 -0.53349095 
0 0 -0.53349095 0 0 -0.53349095 0 0 -0.53349095 
0 0 -0.53349095 0 0 -0.53349095 0 0 -0.53349095 
0 0 -0.53349095 0 0 -0.53349095 0 0 -0.53349095 
0 0 -0.53349095 0 0 -0.53349095 0 0 -0.53349095 
0 0 -0.23919095 0 0 -0.23919095 0 0 -0.23919095 
0 0 -0.23919095 0 0 -0.23919095 0 0 -0.23919095 
0 0 -0.23919095 0 0 -0.23919095 0 0 -0.23919095 
0 0 -0.23919095 0 0 -0.23919095 0 0 -0.23919095 
0 0 -0.23919095 0 0 -0.23919095 0 0 -0.23919095 
0 0 -0.23919095 0 0 -0.23919095 0 0 -0.23919095 
0 0 -0.23919095 0 0 -0.23919095 0 0 -0.23919095 
0 0 -0.23919095 0 0 -0.23919095 0 0 -0.23919095 
0 0 -0.23919095 0 0 -0.23919095 0 0 -0.23919095 
0 0 -0.23919095 0 0 -0.23919095 0 0 -0.23919095 
0 0 -0.23919095 0 0 -0.23919095 0 0 -0.23919095 
0 0 -0.23919095 0 0 -0.23919095 0 0 -0.23919095 
0 0 -0.23919095 0 0 -0.23919095 0 0 -0.23919095 
0 0 -0.23919095 0 0 -0.23919095 0 0 -0.23919095 
0 0 -0.23919095 0 0 -0.23919095 0 0 -0.23919095 
0 0 -0.23919095 0 0 -0.23919095 0 0 -0.23919095 
0 0 -0.23919095 0 0 -0.23919095 0 0 -0.23919095 
0 0 -0.23919095 0 0 -0.23919095 0 0 -0.23919095 
0 0 -0.23919095 0 0 -0.23919095 0 0 -0.23919095 
0 0 -0.23919095 0 0 -0.23919095 0 0 -0.23919095 
0 0 -0.23919095 0 0 -0.23919095 0 0 -0.23919095 
0 0 -0.23919095 0 0 -0.23919095 0 0 -0.23919095 
0 0 -0.23919095 0 0 -0.23919095 0 0 -0.23919095 
0 0 -0.23919095 0 0 -0.23919095 0 0 -0.23919095 
0 0 -0.23919095 0 0 -0.23919095 0 0 -0.23919095 
0 0 -0.23919095 0 0 -0.23919095 0 0 -0.23919095 
0 0 -0.23919095 0 0 -0.23919095 0 0 -0.23919095 
0 0 -0.23919095 0 0 -0.23919095 0 0 -0.23919095 
0 0 -0.23919095 0 0 -0.23919095 0 0 -0.23919095 
0 0 -0.23919095 0 0 -0.23919095 0 0 -0.23919095 