# vtk DataFile Version 5.1
Generated by LIGGGHTS
ASCII
DATASET POLYDATA
POINTS 750 float
0.0136456 -0.015478 0.00148418 0.00328301 -0.00944201 0.00230306 -0.00279379 -0.0105366 0.00142553 
0.00596536 -0.0083514 0.00432669 0.0189553 -0.00771089 0.00144674 -0.00121472 -0.00711057 0.00250042 
0.00748117 -0.00680392 0.0014471 0.0268716 -0.00629406 0.00306355 -0.00449462 -0.00276762 0.00176913 
0.0119178 -0.00234053 0.00188452 0.0180099 -0.00490155 0.0015394 -0.00713956 -0.00164635 0.00230982 
0.00878614 -0.00206679 0.00146128 0.0225441 -0.00185273 0.00172007 0.00787893 -0.0136421 0.00181883 
0.0151194 -0.0103167 0.00158 0.0175665 -0.0124809 0.00196343 0.00816819 -0.0096411 0.00169861 
0.0130227 -0.00846748 0.00189975 0.021578 -0.0094193 0.00171614 -0.00790236 -0.00523268 0.00154769 
0.0215556 -0.00662808 0.00165494 -0.00108066 -0.00492241 0.00551442 0.000414565 -0.00438133 0.00315986 
0.00417162 -0.0043974 0.00252709 0.0107702 -0.00479354 0.00266387 0.0144395 -0.000998656 0.00211748 
0.0247654 -0.00467458 0.00201232 -0.0102738 -0.00208892 0.00283154 0.00449578 -0.00111652 0.00322877 
0.0288801 -0.00203682 0.00352068 0.0119294 -0.0121182 0.00330915 0.000623841 -0.0118368 0.00591736 
0.00591962 -0.011057 0.00330342 0.0147608 -0.0123034 0.00369259 0.0207923 -0.0121189 0.002008 
-0.000371717 -0.0112888 0.00268986 0.00946486 -0.00913688 0.00523371 0.016523 -0.00813833 0.00283273 
0.0251902 -0.00831365 0.00418221 0.00164777 -0.00692275 0.00227658 0.0110923 -0.00743434 0.00365865 
0.0146333 -0.00611711 0.00214071 0.0222865 -0.00451181 0.00341716 -0.00357837 -0.00347095 0.00521595 
0.0145784 -0.00441162 0.00457028 0.019693 -0.00289992 0.0054446 0.0261143 -0.00204596 0.00286719 
0.00810497 -0.0126999 0.00451047 -0.00385176 -0.00833357 0.00431239 0.0195182 -0.00946846 0.00396301 
0.00769479 -0.0046939 0.00429833 -0.000931792 -0.0020695 0.00565136 0.00211247 -0.00503995 0.00551849 
0.0103218 -0.00261087 0.00446616 0.0175568 -0.00294325 0.00347494 -0.00946792 -0.00284411 0.00654922 
0.00109352 -0.00118683 0.00377523 0.00475761 -0.0101331 0.0241197 0.0125665 -0.0118252 0.0243479 
0.0204447 -0.00931293 0.0236491 -0.00567764 -0.00574567 0.0236407 0.0262047 -0.00694784 0.0236747 
0.0126515 -0.00323688 0.0237936 0.0243015 -0.00308154 0.0243402 0.00401553 -0.00180714 0.0235771 
0.00811285 -0.0126997 0.0256122 0.00246058 -0.011993 0.0249633 0.0174812 -0.0114592 0.0260656 
0.000241667 -0.00999196 0.0254344 0.00738483 -0.00847299 0.0249055 0.0113803 -0.00766339 0.026296 
0.0146435 -0.00952342 0.0252786 0.0236103 -0.00806766 0.0265539 -0.000168241 -0.00678797 0.0250939 
0.00455007 -0.00659164 0.0248993 0.0145403 -0.00500828 0.0259222 0.0190529 -0.00685491 0.0250319 
0.00164698 -0.00428262 0.0267112 0.00733822 -0.00345531 0.0264367 -0.00767912 -0.00239877 0.0245127 
-0.00267515 -0.00186049 0.0257952 0.0152281 -0.00168563 0.0250653 0.0188427 -0.00160886 0.0253056 
0.0278359 -0.00193898 0.0263641 0.0108557 -0.0130225 0.0289767 -0.00135593 -0.0102451 0.0290767 
0.0031002 -0.0119703 0.0285693 0.0136911 -0.0118027 0.0272705 0.000932189 -0.00830935 0.0286451 
0.00531399 -0.00983203 0.0274314 0.016268 -0.00845748 0.0288403 -0.00446412 -0.00705109 0.0269377 
0.00634106 -0.00624058 0.0285363 0.0261811 -0.0060131 0.0272786 -0.00802451 -0.00390219 0.0293641 
-0.00152737 -0.00463245 0.0269509 0.0039497 -0.00372013 0.0292822 0.0128955 -0.00290099 0.0274099 
0.0212074 -0.00358288 0.0270841 -0.00508487 -0.00192815 0.0277726 0.0236412 -0.00198971 0.0280683 
0.00616146 -0.0118096 0.0298419 0.017761 -0.0106484 0.0303729 0.0214977 -0.010071 0.0294582 
0.0039457 -0.00887507 0.0299659 0.00883956 -0.00858141 0.0302932 0.0118324 -0.00816733 0.0299476 
0.0198474 -0.00616639 0.0297916 -0.00397578 -0.00477323 0.0297258 0.00839743 -0.00282044 0.0300108 
0.0113691 -0.0042154 0.0299383 0.0209844 -0.00301942 0.0305455 0.0275825 -0.00486151 0.0306062 
0.000871003 -0.00181731 0.0297902 0.0160105 -0.0017709 0.0297394 0.027952 -0.00174946 0.0300425 
0.0150534 -0.0126471 0.0439826 0.0023089 -0.011819 0.0424542 0.0107075 -0.0104178 0.0423398 
0.020135 -0.0106972 0.0420821 -0.00088254 -0.0083535 0.0424854 0.00450799 -0.00875778 0.0426504 
0.00951497 -0.0080642 0.0439567 -0.00515729 -0.00708521 0.0431614 0.00252443 -0.00506457 0.0438813 
0.00695685 -0.00636324 0.0425789 0.00996765 -0.00560825 0.0420695 -0.00459424 -0.00310115 0.0432867 
0.000269919 -0.00253987 0.0422239 0.00725789 -0.00349915 0.0438335 0.0139483 -0.00476567 0.042858 
0.0194432 -0.00398836 0.0424073 0.0226114 -0.00453092 0.0431371 -0.00723867 -0.00161703 0.0422765 
0.0293025 -0.00224623 0.042348 0.0105373 -0.013162 0.0449557 0.00263912 -0.0118 0.0460039 
0.00171744 -0.00900392 0.0447284 0.012606 -0.00794626 0.0455365 0.0165476 -0.00889946 0.0452118 
0.0216972 -0.00880215 0.0455548 -0.00583245 -0.00628172 0.0460926 0.00668328 -0.0057114 0.0463562 
0.0245803 -0.00726984 0.0444825 -0.00723029 -0.00435769 0.0441691 0.00976868 -0.0038265 0.0460783 
0.017108 -0.00300195 0.0448901 0.0266755 -0.00272967 0.0457156 -0.0020623 -0.0018087 0.0448575 
0.00226019 -0.00241906 0.0460072 0.0137614 -0.00222457 0.0451072 0.0226179 -0.0016597 0.0442374 
0.00968051 -0.0133938 0.047957 0.00620913 -0.0114518 0.0467971 0.0129948 -0.0124193 0.0469105 
0.0175912 -0.0121567 0.0485347 0.011493 -0.00983807 0.0484494 0.0135313 -0.00754705 0.0485972 
0.0198704 -0.00990055 0.0484451 0.0240832 -0.00862879 0.0480068 -0.00237281 -0.00745794 0.0470283 
0.000554968 -0.0052981 0.0473069 0.00378837 -0.00716791 0.0467143 -0.00811056 -0.00275725 0.0467201 
0.00933726 -0.00412522 0.0491454 0.0268537 -0.00447958 0.0486138 -0.00109251 -0.00203691 0.0478379 
0.0160463 -0.00162992 0.048121 0.0298767 -0.00217891 0.0467579 -0.000353447 -0.0106154 0.04925 
0.0201626 -0.00670628 0.0491935 -0.005487 -0.00451522 0.0492358 0.00414641 -0.00186365 0.0491777 
0.0206692 -0.0022492 0.0492451 -0.00403546 0.00035743 0.0014862 0.00662879 0.000671047 0.00302607 
0.0167188 0.000845127 0.00305969 -0.00859307 0.00651252 0.00145579 -0.00591387 0.00566274 0.0019499 
-0.000367622 0.00473283 0.00149363 0.0331612 0.00291286 0.00272374 0.00696493 0.00457128 0.00203858 
0.0135276 0.00520309 0.00221492 0.0191285 0.00552716 0.00143671 0.0241375 0.00671101 0.00181303 
0.0286894 0.0061418 0.00238824 -0.0058645 0.00867399 0.00243923 0.00173327 0.00978133 0.00203954 
0.00185882 0.0126462 0.00231281 0.00728448 0.0108881 0.0016577 0.0170045 0.0109932 0.0018968 
0.0223741 0.0102507 0.00299447 0.029303 0.0118323 0.0018716 -0.00976119 0.0140916 0.00340711 
-0.00305577 0.0115764 0.00284284 -0.00104367 0.0132714 0.00387955 0.0150388 0.0123117 0.00376615 
0.0270841 0.0135656 0.0022246 -0.0129948 0.0166251 0.00171062 -0.00706471 0.0158287 0.00260425 
0.0131807 0.0161887 0.00298435 0.0260089 0.0160951 0.00151811 0.00430561 0.0184014 0.00406861 
0.010191 0.0175622 0.00194538 0.0224873 0.0203132 0.00166806 0.0298504 0.017771 0.00346029 
-0.00624094 0.0211109 0.00269902 0.0253619 0.0199959 0.00158912 0.0305339 0.0223146 0.00273781 
-0.00140382 0.023639 0.00230637 0.00190506 0.0244897 0.00150478 0.0120765 0.0230167 0.00221884 
0.0163478 0.0227676 0.00236861 0.00040222 0.0275244 0.00152038 0.00544233 0.0286089 0.00197279 
0.00384561 0.0315205 0.00229921 -0.00127332 -6.24356e-05 0.00196485 0.013283 0.00165006 0.00406694 
0.0307807 8.86769e-05 0.00307707 0.0213295 0.00369098 0.00189097 0.0241858 0.00375944 0.00173237 
0.0275021 0.00193116 0.0027969 0.0317089 0.00532068 0.00228659 -0.0135865 0.00705037 0.0032301 
-0.00247274 0.00663094 0.00186827 0.00139432 0.00697237 0.0015818 0.0089601 0.00662837 0.00240969 
-0.00829238 0.00981914 0.00146312 -0.00121292 0.00945743 0.00171761 0.00509023 0.00961359 0.00337233 
0.0122888 0.00809089 0.00202024 0.0156576 0.0082621 0.00314193 0.0272783 0.00898842 0.0019417 
0.0325031 0.00993608 0.001436 -0.0109857 0.0106462 0.00180962 0.00461954 0.0119033 0.00182048 
0.0107703 0.010512 0.00176942 -0.0146559 0.0128532 0.00250125 0.0128332 0.0125211 0.0019591 
0.0159143 0.0158122 0.00396879 0.0222858 0.0151348 0.00157032 0.00221491 0.0161694 0.00142018 
0.0178131 0.0152468 0.00191674 0.0233365 0.0176807 0.00234124 0.0288375 0.0157973 0.00167204 
0.00202927 0.0190208 0.00160734 0.0140399 0.0190467 0.00173958 0.0196624 0.0178974 0.00149146 
0.0283138 0.0204691 0.00303997 -0.0016077 0.0201741 0.00161549 0.00597531 0.0210386 0.00162403 
0.0172999 0.0194327 0.00217608 0.0201399 0.0226575 0.00279372 -0.00980189 0.0236864 0.00181144 
0.0054674 0.0240691 0.00152214 0.0197402 0.0251341 0.0014398 0.0264607 0.0261183 0.00154659 
-0.00427208 0.0264914 0.00166532 0.0032165 0.0269572 0.00152032 0.0089299 0.0260483 0.00208299 
0.0142825 0.0250239 0.00161641 0.0235368 0.0269292 0.00377066 -0.00225324 0.0285891 0.00150731 
0.0223322 0.0297052 0.00334081 -9.40205e-05 0.0325087 0.00286018 0.00735149 0.0306944 0.00197665 
0.011698 0.030473 0.00267749 0.0155579 0.0331635 0.00190163 0.0194654 0.0303686 0.00228706 
0.00614462 0.0332557 0.00228238 0.0126727 0.0333182 0.00228331 -0.0072233 0.00205248 0.00187234 
-0.0032389 0.000856416 0.00439813 0.0212842 0.000740692 0.0023777 -0.0114838 0.000856843 0.00472762 
-0.00435257 0.00344454 0.00371244 0.00254159 0.00278317 0.00211684 0.00449398 0.00529111 0.0035957 
0.0093246 0.00290643 0.00218449 0.0199926 0.00548312 0.00415988 -0.00347257 0.0076461 0.00497928 
0.0112102 0.00496315 0.00448599 0.0159128 0.00418604 0.0047647 0.0210501 0.00737028 0.00233112 
0.0231857 0.00812102 0.00552401 0.0281299 0.00834161 0.00456589 -0.00746887 0.00692345 0.00488299 
0.00398656 0.00883888 0.00696416 0.025404 0.00926544 0.00406969 -0.00235122 0.0106212 0.00559728 
0.00111354 0.0109563 0.0058453 0.00890021 0.0106925 0.00440348 0.0129511 0.0102177 0.00423506 
0.0192073 0.00882794 0.0047783 0.0250764 0.0121014 0.00354964 0.0337394 0.0108064 0.00370605 
-0.00814917 0.0127144 0.001427 -0.0041234 0.0136513 0.00460596 -0.00119529 0.0129638 0.00669919 
0.02008 0.0119578 0.00312135 0.0320809 0.0138181 0.00181357 -0.00930167 0.0175113 0.00309105 
[...]
POINT_DATA 750
FIELD FieldData 7
id 1 750 int
18 49 41 26 45 58 25 9 29 
38 7 51 44 19 10 56 3 22 
13 48 40 4 47 2 16 50 55 
21 23 6 34 12 20 1 37 27 
24 5 46 32 17 31 30 15 11 
33 42 39 52 36 53 35 54 28 
8 14 57 43 263 290 294 302 260 
300 274 308 280 254 297 266 251 295 
285 264 253 268 269 273 287 265 291 
276 299 289 309 262 282 252 301 298 
256 257 270 278 305 259 255 283 271 
281 304 261 267 296 272 306 277 258 
284 293 275 286 307 292 303 288 279 
504 531 520 501 524 548 552 549 534 
528 532 506 536 545 517 556 512 529 
554 558 515 508 526 518 521 502 542 
503 507 539 513 527 541 510 557 547 
551 535 544 543 555 516 546 533 525 
522 540 519 553 530 505 550 511 509 
538 523 537 514 191 104 138 101 89 
73 160 209 212 202 242 234 85 61 
100 243 112 157 169 244 210 152 250 
80 137 163 211 90 64 180 97 226 
127 196 168 106 184 188 159 98 148 
156 205 132 141 72 66 65 136 144 
122 118 113 128 237 220 63 161 149 
230 215 145 206 216 189 62 222 120 
238 208 146 110 126 179 121 182 231 
249 95 197 77 192 133 143 236 151 
140 170 177 171 187 139 91 207 134 
239 233 232 107 186 83 102 235 69 
68 119 172 129 67 131 185 92 96 
94 130 108 70 123 213 99 165 74 
88 150 217 147 59 223 194 227 87 
116 154 109 124 79 221 75 84 71 
82 167 114 219 228 86 174 105 190 
225 153 81 224 111 76 176 200 164 
247 199 218 214 246 158 193 173 93 
248 229 135 204 142 198 183 166 203 
78 178 175 181 241 155 201 245 115 
60 240 103 117 162 195 125 416 397 
469 499 380 423 331 398 384 433 354 
493 455 352 317 405 497 492 428 409 
462 472 471 467 385 394 322 444 366 
430 447 418 484 437 353 325 334 459 
369 434 383 357 449 378 363 452 359 
338 413 313 453 333 475 466 470 396 
448 343 476 350 473 361 327 488 342 
415 490 368 427 387 386 332 412 310 
379 436 364 376 399 451 367 463 349 
326 360 500 370 320 392 487 339 486 
323 440 482 344 365 328 429 382 314 
460 438 454 362 425 498 374 403 456 
340 311 408 337 312 373 346 411 348 
371 406 481 465 391 377 395 319 318 
400 347 435 404 495 485 464 390 341 
442 458 388 315 381 402 432 439 329 
351 401 443 477 393 457 468 417 389 
330 450 335 316 419 355 489 445 410 
345 358 446 421 324 424 494 321 480 
375 478 461 483 420 414 474 336 407 
479 491 356 422 426 372 496 441 431 
679 698 703 695 711 747 655 678 566 
724 579 670 563 656 727 593 619 718 
625 707 606 682 654 650 562 599 624 
700 710 723 622 715 713 742 714 585 
598 743 672 691 586 590 674 576 728 
702 628 750 618 604 734 740 560 592 
616 638 696 574 735 571 613 640 749 
648 649 642 632 685 647 645 673 629 
659 738 730 611 664 607 609 591 584 
736 637 561 692 683 605 610 721 634 
748 578 570 660 739 588 697 722 587 
741 581 595 575 662 644 559 746 631 
686 681 564 690 693 652 573 603 577 
709 601 675 689 688 633 701 596 744 
627 680 589 666 569 669 582 653 658 
657 626 726 677 671 630 580 719 617 
745 568 583 636 614 706 737 733 676 
667 665 594 725 600 621 712 597 643 
620 651 608 716 602 720 708 615 639 
623 635 668 729 699 565 612 704 567 
663 572 732 717 731 684 705 646 694 
687 661 641 
type 1 750 int
1 1 1 1 1 1 1 1 1 
1 1 1 1 1 1 1 1 1 
1 1 1 1 1 1 1 1 1 
1 1 1 1 1 1 1 1 1 
1 1 1 1 1 1 1 1 1 
1 1 1 1 1 1 1 1 1 
1 1 1 1 1 1 1 1 1 
1 1 1 1 1 1 1 1 1 
1 1 1 1 1 1 1 1 1 
1 1 1 1 1 1 1 1 1 
1 1 1 1 1 1 1 1 1 
1 1 1 1 1 1 1 1 1 
1 1 1 1 1 1 1 1 1 
1 1 1 1 1 1 1 1 1 
1 1 1 1 1 1 1 1 1 
1 1 1 1 1 1 1 1 1 
1 1 1 1 1 1 1 1 1 
1 1 1 1 1 1 1 1 1 
1 1 1 1 1 1 1 1 1 
1 1 1 1 1 1 1 1 1 
1 1 1 1 1 1 1 1 1 
1 1 1 1 1 1 1 1 1 
1 1 1 1 1 1 1 1 1 
1 1 1 1 1 1 1 1 1 
1 1 1 1 1 1 1 1 1 
1 1 1 1 1 1 1 1 1 
1 1 1 1 1 1 1 1 1 
1 1 1 1 1 1 1 1 1 
1 1 1 1 1 1 1 1 1 
1 1 1 1 1 1 1 1 1 
1 1 1 1 1 1 1 1 1 
1 1 1 1 1 1 1 1 1 
1 1 1 1 1 1 1 1 1 
1 1 1 1 1 1 1 1 1 
1 1 1 1 1 1 1 1 1 
1 1 1 1 1 1 1 1 1 
1 1 1 1 1 1 1 1 1 
1 1 1 1 1 1 1 1 1 
1 1 1 1 1 1 1 1 1 
1 1 1 1 1 1 1 1 1 
1 1 1 1 1 1 1 1 1 
1 1 1 1 1 1 1 1 1 
1 1 1 1 1 1 1 1 1 
1 1 1 1 1 1 1 1 1 
1 1 1 1 1 1 1 1 1 
1 1 1 1 1 1 1 1 1 
1 1 1 1 1 1 1 1 1 
1 1 1 1 1 1 1 1 1 
1 1 1 1 1 1 1 1 1 
1 1 1 1 1 1 1 1 1 
1 1 1 1 1 1 1 1 1 
1 1 1 1 1 1 1 1 1 
1 1 1 1 1 1 1 1 1 
1 1 1 1 1 1 1 1 1 
1 1 1 1 1 1 1 1 1 
1 1 1 1 1 1 1 1 1 
1 1 1 1 1 1 1 1 1 
1 1 1 1 1 1 1 1 1 
1 1 1 1 1 1 1 1 1 
1 1 1 1 1 1 1 1 1 
1 1 1 1 1 1 1 1 1 
1 1 1 1 1 1 1 1 1 
1 1 1 1 1 1 1 1 1 
1 1 1 1 1 1 1 1 1 
1 1 1 1 1 1 1 1 1 
1 1 1 1 1 1 1 1 1 
1 1 1 1 1 1 1 1 1 
1 1 1 1 1 1 1 1 1 
1 1 1 1 1 1 1 1 1 
1 1 1 1 1 1 1 1 1 
1 1 1 1 1 1 1 1 1 
1 1 1 1 1 1 1 1 1 
1 1 1 1 1 1 1 1 1 
1 1 1 1 1 1 1 1 1 
1 1 1 1 1 1 1 1 1 
1 1 1 1 1 1 1 1 1 
1 1 1 1 1 1 1 1 1 
1 1 1 1 1 1 1 1 1 
1 1 1 1 1 1 1 1 1 
1 1 1 1 1 1 1 1 1 
1 1 1 1 1 1 1 1 1 
1 1 1 1 1 1 1 1 1 
1 1 1 1 1 1 1 1 1 
1 1 1 
i 3 750 int
0 0 0 0 0 0 0 0 0 
0 0 0 0 0 0 0 0 0 
0 0 0 0 0 0 0 0 0 
0 0 0 0 0 0 0 0 0 
0 0 0 0 0 0 0 0 0 
0 0 0 0 0 0 0 0 0 
0 0 0 0 0 0 0 0 0 
0 0 0 0 0 0 0 0 0 
0 0 0 0 0 0 0 0 0 
0 0 0 0 0 0 0 0 0 
0 0 0 0 0 0 0 0 0 
0 0 0 0 0 0 0 0 0 
0 0 0 0 0 0 0 0 0 
0 0 0 0 0 0 0 0 0 
0 0 0 0 0 0 0 0 0 
0 0 0 0 0 0 0 0 0 
0 0 0 0 0 0 0 0 0 
0 0 0 0 0 0 0 0 0 
0 0 0 0 0 0 0 0 0 
0 0 0 0 0 0 0 0 0 
0 0 0 0 0 0 0 0 0 
0 0 0 0 0 0 0 0 0 
0 0 0 0 0 0 0 0 0 
0 0 0 0 0 0 0 0 0 
0 0 0 0 0 0 0 0 0 
0 0 0 0 0 0 0 0 0 
0 0 0 0 0 0 0 0 0 
0 0 0 0 0 0 0 0 0 
0 0 0 0 0 0 0 0 0 
0 0 0 0 0 0 0 0 0 
0 0 0 0 0 0 0 0 0 
0 0 0 0 0 0 0 0 0 
0 0 0 0 0 0 0 0 0 
0 0 0 0 0 0 0 0 0 
0 0 0 0 0 0 0 0 0 
0 0 0 0 0 0 0 0 0 
0 0 0 0 0 0 0 0 0 
0 0 0 0 0 0 0 0 0 
0 0 0 0 0 0 0 0 0 
0 0 0 0 0 0 0 0 0 
0 0 0 0 0 0 0 0 0 
0 0 0 0 0 0 0 0 0 
0 0 0 0 0 0 0 0 0 
0 0 0 0 0 0 0 0 0 
0 0 0 0 0 0 0 0 0 
0 0 0 0 0 0 0 0 0 
0 0 0 0 0 0 0 0 0 
0 0 0 0 0 0 0 0 0 
0 0 0 0 0 0 0 0 0 
0 0 0 0 0 0 0 0 0 
0 0 0 0 0 0 0 0 0 
0 0 0 0 0 0 0 0 0 
0 0 0 0 0 0 0 0 0 
0 0 0 0 0 0 0 0 0 
0 0 0 0 0 0 0 0 0 
0 0 0 0 0 0 0 0 0 
0 0 0 0 0 0 0 0 0 
0 0 0 0 0 0 0 0 0 
0 0 0 0 0 0 0 0 0 
0 0 0 0 0 0 0 0 0 
0 0 0 0 0 0 0 0 0 
0 0 0 0 0 0 0 0 0 
0 0 0 0 0 0 0 0 0 
0 0 0 0 0 0 0 0 0 
0 0 0 0 0 0 0 0 0 
0 0 0 0 0 0 0 0 0 
0 0 0 0 0 0 0 0 0 
0 0 0 0 0 0 0 0 0 
0 0 0 0 0 0 0 0 0 
0 0 0 0 0 0 0 0 0 
0 0 0 0 0 0 0 0 0 
0 0 0 0 0 0 0 0 0 
0 0 0 0 0 0 0 0 0 
0 0 0 0 0 0 0 0 0 
0 0 0 0 0 0 0 0 0 
0 0 0 0 0 0 0 0 0 
0 0 0 0 0 0 0 0 0 
0 0 0 0 0 0 0 0 0 
0 0 0 0 0 0 0 0 0 
0 0 0 0 0 0 0 0 0 
0 0 0 0 0 0 0 0 0 
0 0 0 0 0 0 0 0 0 
0 0 0 0 0 0 0 0 0 
0 0 0 0 0 0 0 0 0 
0 0 0 0 0 0 0 0 0 
0 0 0 0 0 0 0 0 0 
0 0 0 0 0 0 0 0 0 
0 0 0 0 0 0 0 0 0 
0 0 0 0 0 0 0 0 0 
0 0 0 0 0 0 0 0 0 
0 0 0 0 0 0 0 0 0 
0 0 0 0 0 0 0 0 0 
0 0 0 0 0 0 0 0 0 
0 0 0 0 0 0 0 0 0 
0 0 0 0 0 0 0 0 0 
0 0 0 0 0 0 0 0 0 
0 0 0 0 0 0 0 0 0 
0 0 0 0 0 0 0 0 0 
0 0 0 0 0 0 0 0 0 
0 0 0 0 0 0 0 0 0 
0 0 0 0 0 0 0 0 0 
0 0 0 0 0 0 0 0 0 
0 0 0 0 0 0 0 0 0 
0 0 0 0 0 0 0 0 0 
0 0 0 0 0 0 0 0 0 
0 0 0 0 0 0 0 0 0 
0 0 0 0 0 0 0 0 0 
0 0 0 0 0 0 0 0 0 
0 0 0 0 0 0 0 0 0 
0 0 0 0 0 0 0 0 0 
0 0 0 0 0 0 0 0 0 
0 0 0 0 0 0 0 0 0 
0 0 0 0 0 0 0 0 0 
0 0 0 0 0 0 0 0 0 
0 0 0 0 0 0 0 0 0 
0 0 0 0 0 0 0 0 0 
0 0 0 0 0 0 0 0 0 
0 0 0 0 0 0 0 0 0 
0 0 0 0 0 0 0 0 0 
0 0 0 0 0 0 0 0 0 
0 0 0 0 0 0 0 0 0 
0 0 0 0 0 0 0 0 0 
0 0 0 0 0 0 0 0 0 
0 0 0 0 0 0 0 0 0 
0 0 0 0 0 0 0 0 0 
0 0 0 0 0 0 0 0 0 
0 0 0 0 0 0 0 0 0 
0 0 0 0 0 0 0 0 0 
0 0 0 0 0 0 0 0 0 
0 0 0 0 0 0 0 0 0 
0 0 0 0 0 0 0 0 0 
0 0 0 0 0 0 0 0 0 
0 0 0 0 0 0 0 0 0 
0 0 0 0 0 0 0 0 0 
0 0 0 0 0 0 0 0 0 
0 0 0 0 0 0 0 0 0 
0 0 0 0 0 0 0 0 0 
0 0 0 0 0 0 0 0 0 
0 0 0 0 0 0 0 0 0 
0 0 0 0 0 0 0 0 0 
0 0 0 0 0 0 0 0 0 
0 0 0 0 0 0 0 0 0 
0 0 0 0 0 0 0 0 0 
0 0 0 0 0 0 0 0 0 
0 0 0 0 0 0 0 0 0 
0 0 0 0 0 0 0 0 0 
0 0 0 0 0 0 0 0 0 
0 0 0 0 0 0 0 0 0 
0 0 0 0 0 0 0 0 0 
0 0 0 0 0 0 0 0 0 
0 0 0 0 0 0 0 0 0 
0 0 0 0 0 0 0 0 0 
0 0 0 0 0 0 0 0 0 
0 0 0 0 0 0 0 0 0 
0 0 0 0 0 0 0 0 0 
0 0 0 0 0 0 0 0 0 
0 0 0 0 0 0 0 0 0 
0 0 0 0 0 0 0 0 0 
0 0 0 0 0 0 0 0 0 
0 0 0 0 0 0 0 0 0 
0 0 0 0 0 0 0 0 0 
0 0 0 0 0 0 0 0 0 
0 0 0 0 0 0 0 0 0 
0 0 0 0 0 0 0 0 0 
0 0 0 0 0 0 0 0 0 
0 0 0 0 0 0 0 0 0 
0 0 0 0 0 0 0 0 0 
0 0 0 0 0 0 0 0 0 
0 0 0 0 0 0 0 0 0 
0 0 0 0 0 0 0 0 0 
0 0 0 0 0 0 0 0 0 
0 0 0 0 0 0 0 0 0 
0 0 0 0 0 0 0 0 0 
0 0 0 0 0 0 0 0 0 
0 0 0 0 0 0 0 0 0 
0 0 0 0 0 0 0 0 0 
0 0 0 0 0 0 0 0 0 
0 0 0 0 0 0 0 0 0 
0 0 0 0 0 0 0 0 0 
0 0 0 0 0 0 0 0 0 
0 0 0 0 0 0 0 0 0 
0 0 0 0 0 0 0 0 0 
0 0 0 0 0 0 0 0 0 
0 0 0 0 0 0 0 0 0 
0 0 0 0 0 0 0 0 0 
0 0 0 0 0 0 0 0 0 
0 0 0 0 0 0 0 0 0 
0 0 0 0 0 0 0 0 0 
0 0 0 0 0 0 0 0 0 
0 0 0 0 0 0 0 0 0 
0 0 0 0 0 0 0 0 0 
0 0 0 0 0 0 0 0 0 
0 0 0 0 0 0 0 0 0 
0 0 0 0 0 0 0 0 0 
0 0 0 0 0 0 0 0 0 
0 0 0 0 0 0 0 0 0 
0 0 0 0 0 0 0 0 0 
0 0 0 0 0 0 0 0 0 
0 0 0 0 0 0 0 0 0 
0 0 0 0 0 0 0 0 0 
0 0 0 0 0 0 0 0 0 
0 0 0 0 0 0 0 0 0 
0 0 0 0 0 0 0 0 0 
0 0 0 0 0 0 0 0 0 
0 0 0 0 0 0 0 0 0 
0 0 0 0 0 0 0 0 0 
0 0 0 0 0 0 0 0 0 
0 0 0 0 0 0 0 0 0 
0 0 0 0 0 0 0 0 0 
0 0 0 0 0 0 0 0 0 
0 0 0 0 0 0 0 0 0 
0 0 0 0 0 0 0 0 0 
0 0 0 0 0 0 0 0 0 
0 0 0 0 0 0 0 0 0 
0 0 0 0 0 0 0 0 0 
0 0 0 0 0 0 0 0 0 
0 0 0 0 0 0 0 0 0 
0 0 0 0 0 0 0 0 0 
0 0 0 0 0 0 0 0 0 
0 0 0 0 0 0 0 0 0 
0 0 0 0 0 0 0 0 0 
0 0 0 0 0 0 0 0 0 
0 0 0 0 0 0 0 0 0 
0 0 0 0 0 0 0 0 0 
0 0 0 0 0 0 0 0 0 
0 0 0 0 0 0 0 0 0 
0 0 0 0 0 0 0 0 0 
0 0 0 0 0 0 0 0 0 
0 0 0 0 0 0 0 0 0 
0 0 0 0 0 0 0 0 0 
0 0 0 0 0 0 0 0 0 
0 0 0 0 0 0 0 0 0 
0 0 0 0 0 0 0 0 0 
0 0 0 0 0 0 0 0 0 
0 0 0 0 0 0 0 0 0 
0 0 0 0 0 0 0 0 0 
0 0 0 0 0 0 0 0 0 
0 0 0 0 0 0 0 0 0 
0 0 0 0 0 0 0 0 0 
0 0 0 0 0 0 0 0 0 
0 0 0 0 0 0 0 0 0 
0 0 0 0 0 0 0 0 0 
0 0 0 0 0 0 0 0 0 
0 0 0 0 0 0 0 0 0 
0 0 0 0 0 0 0 0 0 
0 0 0 0 0 0 0 0 0 
0 0 0 0 0 0 0 0 0 
0 0 0 0 0 0 0 0 0 
0 0 0 0 0 0 0 0 0 
0 0 0 0 0 0 0 0 0 

v 3 750 double
0.083695374911 -0.59556839954 -0.11819541419 0.14364222508 -0.15164434344 0.09730776376 0.46778988476 -0.59414284662 0.19372460454 
-0.11600718392 -0.40598272861 0.3804855908 0.077674721462 -0.013660238143 -0.040290425536 -0.045567966204 0.019159746528 0.47151335564 
-0.40957856813 -0.021827699313 0.015335235646 0.24646079231 0.07772515808 0.15162644682 -0.20931471714 -0.062063261323 0.17029781153 
0.12239197201 0.0034730266029 -0.047921699953 0.17985634558 0.49926974428 0.20068150995 -0.28136170806 -0.072669310289 -0.16079290866 
-0.15907459307 0.077986291486 0.32723147262 -0.26968961033 -0.2767609011 -0.36245774057 -0.3971235406 -0.49290280662 0.029755044976 
0.12199189367 -0.13686849542 0.29351712878 0.23660685302 -0.14287967045 0.054713393542 0.023484586507 -0.23607354036 0.19252401202 
-0.044229949641 -0.041517469935 -0.0019523978805 -0.17157596694 -0.27143198272 0.28584470217 -0.40435114588 0.38099896511 0.39598447327 
0.16566483099 -0.27647108749 0.089326165536 0.37305896352 0.37895724067 0.25121250587 -0.21084512812 -0.35673052222 0.24400429619 
0.20742119198 0.0031143378195 -0.016392258293 0.011478520961 0.03703472166 -0.26570618582 -0.19292640217 0.33714600705 -0.24751590042 
0.067225902575 -0.088945874494 0.33314136025 -0.29005453693 0.069569383022 0.013094634351 -0.1382052518 0.37773481316 -0.36049615515 
0.45950578132 -0.33558591804 0.37252725569 -0.41788837906 0.16886414313 -0.13287776463 -0.45110325361 -0.28775223375 0.39717178353 
-0.0071141696366 -0.18749987711 0.18351673191 0.22293586953 -0.10882774331 0.040490186409 0.0076635400761 -0.18779149484 -0.37221846254 
0.11031817155 -0.68425426399 -0.35134441667 0.43373024515 0.39644350747 0.53761964149 -0.078893924178 0.22130908048 -0.39612791533 
0.53489569017 0.16461985163 0.054580341108 -0.14976030047 0.21807848589 -0.24875521203 -0.073530792853 0.17627643973 -0.19720933513 
-0.092180038533 0.14841440769 -0.23242505277 -0.086245377652 0.24654365126 -0.24724530433 0.30523238071 -0.063271624157 0.38706398131 
0.059721728072 -0.11548724327 -0.31793833048 -0.069601953375 0.011513091696 0.24604949677 0.010049668471 -0.090462686377 -0.16251149871 
-0.07395244806 0.29463348535 0.56414688431 -0.070650814312 0.16244778417 -0.36645374089 0.044326870822 -0.25075083005 -0.50991563794 
0.075544713611 0.47022629015 -0.1239109709 0.129442043 0.10085810972 -0.28719138445 -0.71092455541 -0.44226142216 0.36937347946 
0.11867398439 -0.12765339108 -0.029995004474 0.24860474862 0.38703371935 -0.34103513272 -0.30762627204 -0.22204188241 0.77796712677 
0.015414081524 0.28098353385 -0.505010773 0 0 -0.76893095 0 0 -0.76893095 
0 0 -0.76893095 0 0 -0.76893095 0 0 -0.76893095 
0 0 -0.76893095 0 0 -0.76893095 0 0 -0.76893095 
0 0 -0.76893095 0 0 -0.76893095 0 0 -0.76893095 
0 0 -0.76893095 0 0 -0.76893095 0 0 -0.76893095 
0 0 -0.76893095 0 0 -0.76893095 0 0 -0.76893095 
0 0 -0.76893095 0 0 -0.76893095 0 0 -0.76893095 
0 0 -0.76893095 0 0 -0.76893095 0 0 -0.76893095 
0 0 -0.76893095 0 0 -0.76893095 0 0 -0.76893095 
0 0 -0.76893095 0 0 -0.76893095 0 0 -0.76893095 
0 0 -0.76893095 0 0 -0.76893095 0 0 -0.76893095 
0 0 -0.76893095 0 0 -0.76893095 0 0 -0.76893095 
0 0 -0.76893095 0 0 -0.76893095 0 0 -0.76893095 
0 0 -0.76893095 0 0 -0.76893095 0 0 -0.76893095 
0 0 -0.76893095 0 0 -0.76893095 0 0 -0.76893095 
0 0 -0.76893095 0 0 -0.76893095 0 0 -0.76893095 
0 0 -0.76893095 0 0 -0.76893095 0 0 -0.76893095 
0 0 -0.76893095 0 0 -0.76893095 0 0 -0.76893095 
0 0 -0.76893095 0 0 -0.76893095 0 0 -0.76893095 
0 0 -0.76893095 0 0 -0.76893095 0 0 -0.76893095 
0 0 -0.47463095 0 0 -0.47463095 0 0 -0.47463095 
0 0 -0.47463095 0 0 -0.47463095 0 0 -0.47463095 
0 0 -0.47463095 0 0 -0.47463095 0 0 -0.47463095 
0 0 -0.47463095 0 0 -0.47463095 0 0 -0.47463095 
0 0 -0.47463095 0 0 -0.47463095 0 0 -0.47463095 
0 0 -0.47463095 0 0 -0.47463095 0 0 -0.47463095 
0 0 -0.47463095 0 0 -0.47463095 0 0 -0.47463095 
0 0 -0.47463095 0 0 -0.47463095 0 0 -0.47463095 
0 0 -0.47463095 0 0 -0.47463095 0 0 -0.47463095 
0 0 -0.47463095 0 0 -0.47463095 0 0 -0.47463095 
0 0 -0.47463095 0 0 -0.47463095 0 0 -0.47463095 
0 0 -0.47463095 0 0 -0.47463095 0 0 -0.47463095 
0 0 -0.47463095 0 0 -0.47463095 0 0 -0.47463095 
0 0 -0.47463095 0 0 -0.47463095 0 0 -0.47463095 
0 0 -0.47463095 0 0 -0.47463095 0 0 -0.47463095 
0 0 -0.47463095 0 0 -0.47463095 0 0 -0.47463095 
0 0 -0.47463095 0 0 -0.47463095 0 0 -0.47463095 
0 0 -0.47463095 0 0 -0.47463095 0 0 -0.47463095 
0 0 -0.47463095 0 0 -0.47463095 0 0 -0.47463095 
0 0 -0.47463095 0.48074371579 0.17590436355 -0.027116199879 0.24563136702 -0.50087370129 0.089925314192 
-0.36266006633 -0.53665454085 -0.0146263804 0.21178699941 0.42354797847 0.077351209827 0.24840309492 0.16327443464 -0.22875844972 
-0.082853338039 -0.15484540562 -0.064676715575 0.35034725268 -0.057234334135 0.28229003892 0.26752992803 -0.17422341814 0.23208929161 
-0.30017791041 0.0018390239012 0.27076519585 0.17547098892 -0.13729845332 -0.090068463392 0.020599783097 0.061483484297 0.44763247679 
0.24274461778 -0.048136257444 0.3793548713 -0.34779384602 -0.24020286953 0.057738057732 -0.30084000149 0.075350549503 0.32896238441 
-0.24501656292 0.34210617166 -0.17621426934 -0.45255098486 0.10379187397 -0.53024109915 -0.51424406707 -0.14748471581 0.095958946547 
-0.10432475173 0.22685680833 -0.091158605483 0.066578256926 -0.054369129309 0.38570770524 0.38690749311 -0.18455287173 0.11327350494 
0.19606700192 0.041336563706 0.42368370987 0.022356974421 0.018112071771 0.46564529063 -0.31205722493 -0.37064895289 0.53602658656 
0.1077751448 0.014877957964 0.073946808797 -0.34344040669 -0.10179241206 0.69069668551 -0.12263775389 -0.080038772088 0.51649431068 
0.13107707524 -0.29544249316 0.049189829282 -0.11796221835 0.026358621614 0.24219252047 0.34958272105 -0.025390389541 0.22203847343 
0.19966031272 -0.024815175769 -0.16021275804 0.07408516129 0.51743460719 -0.099508364883 -0.29757745931 0.00041976784871 0.032296965815 
0.06126906828 -0.12383097707 -0.14763071284 0.07075144984 -0.37262963903 -0.4720989883 0.1981384956 0.18336129216 0.67342558053 
-0.40144227102 0.027640475406 -0.30162758817 -0.21061008824 -0.029487949476 0.16573046377 0.27366189518 -0.044091494948 0.12154697685 
-0.011362852097 0.018336285422 0.040272119672 -0.0088508904263 -0.11466279881 0.17105465771 -0.18817835746 0.15043831225 0.25873602297 
0.13324474615 0.15042568505 0.45103753665 -0.16640268085 -0.38517996735 0.59514021745 0 0 0.90058076782 
0.28822522118 -0.23954571444 -0.10916289727 0.22090634633 -0.10309555581 0.13433492706 0.15803016756 0.018041409967 0.0325110797 
0.14760961828 -0.19065859926 -0.52318960263 -0.064483223714 -0.055445973529 -0.18295422448 -0.26655341854 0.18911167357 0.56205390872 
-0.11883170554 0.15546845774 0.35219714221 0.027164380573 0.074338178053 0.18528059863 -0.055762326319 0.022956403884 0.73118186888 
-0.015652614078 0.050913537826 0.42865203488 0.16749845405 -0.11676482731 -0.43922981279 -0.14465414809 0.30913110727 0.036467233451 
-0.11191276462 -0.2096020835 0.0038507042445 0 0 0.91990380459 0.26845946632 0.14416413199 -0.031841211027 
0.24644906132 0.26616883 -0.07165266727 -0.17132880542 0.28760900532 0.4714966902 -0.066001473855 -0.098484690115 -0.35171650732 
0.06066813776 0.098862791529 -0.35766794792 -0.6276750702 -0.13189329819 -0.5953636501 0.17149100249 -0.065103734138 0.28884786136 
0.014194905377 -0.10306647171 0.1588192855 0.25170087853 0.13341534748 0.3165345548 0.18935638423 -0.11173225247 0.1239987598 
0.11524095356 -0.24826704403 0.27266415765 0.097268572603 0.34665909313 -0.24921229521 -0.11848907259 0.22454229779 0.22324275849 
0.12907906591 0.13954680283 -0.085436889434 0.36653325574 0.20246796487 0.31092092265 -0.2973423389 0.30937450856 -0.35250451745 
0.37247274801 0.26088105085 -0.22837196888 0.52751936617 -0.0022638018246 0.30283422831 -0.2641701859 0.1652961458 0.65166938381 
0.2354101396 -0.39763915323 0.58351920677 0.15151191349 0.48477375135 0.53220584078 -0.37732792541 -0.1239512655 0.35989417544 
-0.48620669253 -0.29910563057 0.07206017983 0.22598038993 0.082395475603 -0.18813126632 0.081403373828 0.72877962054 0.38423946744 
-0.13300271041 0.24453091908 0.25064397101 -0.24155210227 -0.0058216613502 0.16277767484 0.1588045318 0.048040415807 -0.20536805669 
-0.12695960104 -0.47637815104 -0.13411241545 0 0 0.9069386601 -0.058723489054 0.022952859582 0.06971646653 
0 0 0.91593311972 -0.057522181165 0.3979636844 0.5896506907 -0.043944347719 0.16980699042 0.095831725635 
0.062989380939 0.48356977421 -0.044987483621 0.12960503001 0.31359942646 -0.18853708187 0.19905614631 0.078106377498 0.68071472135 
0.20488575565 0.046503185452 0.42547196319 0.37544347388 -0.019993256524 0.35984190169 0 0 0.94523387518 
-0.19013242747 -0.11690999023 -0.30215823277 -0.66178477604 -0.11407338561 -0.5046201745 -0.33240363986 -0.55310168441 0.13404917421 
0.083114137746 -0.21669080354 -0.22217992519 -0.0217954992 0.049978317306 0.95793239024 -0.3078573432 0.48929039625 -0.32247701423 
0.18846877463 -0.16121332847 0.57830634878 0.32193258927 0.35561812903 0.03520185309 -0.071051056123 0.42185935506 0.42619507166 
-0.48284784187 -0.047553605242 0.12276375166 -0.053345565608 -0.30397632355 0.54913113974 0.11704201593 -0.059872687737 -0.33514185493 
-0.0333454453 0.34649635753 0.049603032835 -0.053774520805 0.33100349719 0.12601296581 -0.10716894742 -0.27764423946 0.30563342219 
0.19584163203 -0.0087131166665 0.46152212614 -0.041016652055 0.12093335768 -0.23110849502 0.15151770809 -0.19669561827 0.34981220849 
0.30039446065 0.15519802583 0.52926074017 0.14013349243 -0.074309537638 -0.06716977731 0.033298362642 0.28295106449 0.029042212605 
0.36228058736 -0.34016474075 0.082610075116 0.10112517626 -0.18773095468 -0.24503424844 0.26225226628 0.087093433726 0.49098132258 
-0.087724856033 0.13466791405 -0.17332624379 0.029135336534 0.3035852533 0.24756264598 0.028755810217 0.051532640346 0.53994373006 
0.037172865944 -0.35046750346 0.080229711666 0.12860681936 -0.42004600553 -0.69111509745 -0.066195542983 0.032346697321 -0.53274868324 
-0.087027820212 0.049519870682 0.21173553448 0 0 -0.999209827 0.33174028628 0.26247897878 0.60065203254 
0.051606689371 -0.24836030036 0.60613588016 -0.1176283808 -0.019756305942 0.34497294273 0.30438305723 -0.27704265558 0.065000504708 
-0.45559340495 0.49210887428 -0.12863096337 -0.3403810357 0.08262814023 -0.38417679413 -0.051479219015 0.0022609641405 0.14932317024 
0.040820061303 0.15564542961 -0.20878155658 0.010392829069 -0.5670795163 -0.54397615321 -0.22909949573 0.41969899449 0.4867565905 