# vtk DataFile Version 5.1
Generated by LIGGGHTS
ASCII
DATASET POLYDATA
POINTS 750 float
0.00907973 -0.012607 0.00566109 0.0136075 -0.0131988 0.00505899 0.0031541 -0.010225 0.00482294 
-0.00444061 -0.00849451 0.00452499 0.00613848 -0.00768589 0.00480786 0.0132038 -0.0084453 0.00598404 
0.0189126 -0.00926293 0.00458555 0.0223219 -0.00913161 0.00604238 -0.0013582 -0.00669164 0.00504309 
0.00945297 -0.00566082 0.00511758 0.0257257 -0.00673546 0.00411463 -0.00308905 -0.00380005 0.00436727 
0.00070096 -0.00418992 0.00608177 0.0116788 -0.00306992 0.00522521 0.0173189 -0.00472824 0.00426187 
0.0242298 -0.00424082 0.00577977 -0.009827 -0.00219253 0.00614395 -0.00663779 -0.00190889 0.00418665 
0.00743962 -0.00219621 0.00485293 0.0218176 -0.00223372 0.00455927 0.0283209 -0.00187659 0.00616453 
0.0114418 -0.0125728 0.00854784 0.00539417 -0.0105415 0.00859427 0.0146819 -0.0110611 0.00694167 
0.0177222 -0.0116127 0.00669534 0.0205991 -0.0108807 0.00788643 0.00833056 -0.00999546 0.0069671 
-0.00614196 -0.00689141 0.00675744 0.0149386 -0.00644234 0.00854276 0.0195975 -0.00579634 0.00669021 
-0.00208666 -0.00463601 0.00783994 0.00393469 -0.0043987 0.00680925 0.01089 -0.00491448 0.0077065 
0.0158318 -0.00304299 0.0070796 0.0207465 -0.00256093 0.0083784 0.00592537 -0.00219775 0.00768863 
0.00827048 -0.0128912 0.0111559 0.00224067 -0.0108057 0.00882119 0.0149613 -0.0119988 0.00997366 
-0.00372367 -0.00863405 0.0111735 -0.000963028 -0.00918224 0.00882982 0.00895241 -0.00957662 0.00997237 
0.0164703 -0.00858327 0.0101745 0.0194273 -0.00907137 0.0112232 0.0239434 -0.00846644 0.00911169 
0.00158104 -0.00674479 0.00968794 0.00751332 -0.00557911 0.01081 0.011193 -0.00744003 0.00976399 
0.0236584 -0.00525976 0.00891449 -0.00456744 -0.00298205 0.00990185 -0.00154496 -0.00334521 0.0108893 
0.00350341 -0.00396545 0.0112989 0.0103342 -0.00253398 0.0104322 0.0132701 -0.00445464 0.0101234 
0.0171913 -0.00339789 0.0106464 -0.00831872 -0.00234028 0.01081 0.00112688 -0.00164233 0.0110719 
0.0256047 -0.00198517 0.00961806 0.00811285 -0.0126997 0.0314497 0.00246058 -0.011993 0.0308008 
0.00475761 -0.0101331 0.0299572 0.0125665 -0.0118252 0.0301854 0.000241667 -0.00999196 0.0312719 
0.00738483 -0.00847299 0.030743 0.0146435 -0.00952342 0.0311161 0.0204447 -0.00931293 0.0294866 
-0.00567764 -0.00574567 0.0294782 -0.000168241 -0.00678797 0.0309314 0.00455007 -0.00659164 0.0307369 
0.0190529 -0.00685491 0.0308694 0.0262047 -0.00694784 0.0295122 0.0126515 -0.00323688 0.0296311 
0.0243015 -0.00308154 0.0301777 -0.00767912 -0.00239877 0.0303502 0.00401553 -0.00180714 0.0294146 
0.0152281 -0.00168563 0.0309029 0.0188427 -0.00160886 0.0311431 0.0136911 -0.0118027 0.033108 
0.0174812 -0.0114592 0.0319031 0.00531399 -0.00983203 0.0332689 0.0113803 -0.00766339 0.0321335 
0.0236103 -0.00806766 0.0323914 -0.00446412 -0.00705109 0.0327753 0.0145403 -0.00500828 0.0317597 
0.0261811 -0.0060131 0.0331162 -0.00152737 -0.00463245 0.0327885 0.00164698 -0.00428262 0.0325487 
0.00733822 -0.00345531 0.0322742 0.0128955 -0.00290099 0.0332474 0.0212074 -0.00358288 0.0329216 
-0.00508487 -0.00192815 0.0336101 -0.00267515 -0.00186049 0.0316327 0.0236412 -0.00198971 0.0339058 
0.0278359 -0.00193898 0.0322016 0.0108557 -0.0130225 0.0348142 -0.00135593 -0.0102451 0.0349142 
0.0031002 -0.0119703 0.0344069 0.00616146 -0.0118096 0.0356794 0.017761 -0.0106484 0.0362104 
0.0214977 -0.010071 0.0352958 0.000932189 -0.00830935 0.0344826 0.0039457 -0.00887507 0.0358034 
0.00883956 -0.00858141 0.0361308 0.0118324 -0.00816733 0.0357852 0.016268 -0.00845748 0.0346779 
0.00634106 -0.00624058 0.0343738 0.0198474 -0.00616639 0.0356292 -0.00802451 -0.00390219 0.0352017 
-0.00397578 -0.00477323 0.0355633 0.0039497 -0.00372013 0.0351197 0.00839743 -0.00282044 0.0358483 
0.0113691 -0.0042154 0.0357758 0.0209844 -0.00301942 0.036383 0.0275825 -0.00486151 0.0364438 
0.000871003 -0.00181731 0.0356278 0.0160105 -0.0017709 0.0355769 0.027952 -0.00174946 0.03588 
0.0023089 -0.011819 0.0459373 0.0107075 -0.0104178 0.045823 0.020135 -0.0106972 0.0455652 
-0.00088254 -0.0083535 0.0459685 0.00450799 -0.00875778 0.0461336 -0.00515729 -0.00708521 0.0466445 
0.00695685 -0.00636324 0.046062 0.00996765 -0.00560825 0.0455526 0.000269919 -0.00253987 0.045707 
0.0139483 -0.00476567 0.0463412 0.0194432 -0.00398836 0.0458905 0.0226114 -0.00453092 0.0466202 
-0.00723867 -0.00161703 0.0457596 0.0293025 -0.00224623 0.0458311 0.0105373 -0.013162 0.0484389 
0.0150534 -0.0126471 0.0474657 0.00171744 -0.00900392 0.0482115 0.00951497 -0.0080642 0.0474398 
0.012606 -0.00794626 0.0490196 0.0165476 -0.00889946 0.0486949 0.0216972 -0.00880215 0.049038 
0.00252443 -0.00506457 0.0473644 0.0245803 -0.00726984 0.0479656 -0.00723029 -0.00435769 0.0476522 
-0.00459424 -0.00310115 0.0467698 0.00725789 -0.00349915 0.0473166 0.017108 -0.00300195 0.0483732 
0.0266755 -0.00272967 0.0491988 -0.0020623 -0.0018087 0.0483406 0.0137614 -0.00222457 0.0485904 
0.0226179 -0.0016597 0.0477206 0.00968051 -0.0133938 0.0514401 0.00263912 -0.0118 0.049487 
0.00620913 -0.0114518 0.0502803 0.0129948 -0.0124193 0.0503937 0.0240832 -0.00862879 0.0514899 
-0.00583245 -0.00628172 0.0495758 -0.00237281 -0.00745794 0.0505114 0.000554968 -0.0052981 0.05079 
0.00378837 -0.00716791 0.0501974 0.00668328 -0.0057114 0.0498393 -0.00811056 -0.00275725 0.0502032 
0.00976868 -0.0038265 0.0495614 -0.00109251 -0.00203691 0.051321 0.00226019 -0.00241906 0.0494903 
0.0160463 -0.00162992 0.0516041 0.0298767 -0.00217891 0.0502411 -0.000353447 -0.0106154 0.0527331 
0.0175912 -0.0121567 0.0520178 0.011493 -0.00983807 0.0519326 0.0135313 -0.00754705 0.0520803 
0.0198704 -0.00990055 0.0519283 0.0201626 -0.00670628 0.0526766 -0.005487 -0.00451522 0.052719 
0.00933726 -0.00412522 0.0526285 0.0268537 -0.00447958 0.0520969 0.00414641 -0.00186365 0.0526608 
0.0206692 -0.0022492 0.0527282 -0.00462621 0.0016248 0.00498684 0.0060063 0.00203512 0.00533579 
0.013283 0.00165006 0.00628936 0.0178199 0.00247639 0.00429583 -0.00928771 0.00451097 0.00433422 
-0.00601226 0.00486932 0.00515944 -0.000440246 0.00404452 0.00447277 0.0235973 0.00386773 0.00554211 
0.032064 0.00309082 0.00480403 0.00644694 0.00605001 0.00485024 0.013914 0.00541902 0.00483009 
0.0186323 0.00578564 0.00531927 0.0239873 0.0065705 0.00419864 0.0278546 0.00547307 0.00432366 
-0.00765109 0.00918223 0.00576947 -0.00475942 0.00940273 0.00459537 -0.000475454 0.00983608 0.00557205 
0.002791 0.00928186 0.00415884 0.026528 0.00828879 0.00546511 0.0322905 0.00800779 0.0061062 
0.00245509 0.0123432 0.00493343 0.00575418 0.0108983 0.006178 0.00872615 0.0107417 0.00429191 
0.0181002 0.0108481 0.00507967 0.0228393 0.010498 0.00426399 0.0304404 0.0117205 0.00463706 
-0.0112831 0.0141194 0.00413296 -0.00413442 0.0125097 0.00434694 -0.00120105 0.0132637 0.00510872 
0.0151702 0.0138133 0.00429619 0.0217895 0.0147509 0.00630826 0.0268289 0.0132824 0.00472625 
-0.0120147 0.0170851 0.0051131 -0.0067282 0.016887 0.00426813 0.00175929 0.0163709 0.00559152 
0.0129035 0.0163645 0.00519866 0.0174879 0.01635 0.00545542 0.0268293 0.0173995 0.0048597 
0.00438335 0.0182199 0.00458929 0.00863461 0.0188759 0.00475533 0.0133113 0.0193738 0.00580342 
0.0230423 0.0183926 0.00414254 0.0306997 0.0175015 0.00479704 -0.00601677 0.0217518 0.00496734 
-0.00306576 0.020186 0.00577893 0.0196451 0.0216624 0.00545208 0.0250001 0.0215893 0.00457502 
0.0291263 0.021302 0.00469273 -5.18696e-05 0.0232594 0.00436596 0.00274765 0.0243798 0.00455155 
0.011012 0.0238926 0.00482107 0.0166108 0.0230118 0.00514452 -0.00399942 0.0256795 0.00565792 
0.0145524 0.0264105 0.00607458 0.000549495 0.0282511 0.00438544 0.00599068 0.0282761 0.00458519 
0.000142147 0.03084 0.00622977 0.00352171 0.0310126 0.00530153 0.00764794 0.030742 0.00566443 
0.0117712 0.0301153 0.00626497 0.0148683 0.0323413 0.00545246 0.0188992 0.0301464 0.00581133 
-0.0072233 0.00205248 0.00880996 -0.00113359 0.00197923 0.00701352 0.0311863 0.00174196 0.00767504 
-0.010097 0.00316434 0.00790516 -0.00462309 0.0032976 0.00786133 0.00254352 0.00277921 0.0085379 
0.00889509 0.00329137 0.00793738 0.0208128 0.003891 0.00732203 0.0275689 0.00389094 0.0070419 
0.0319303 0.00492599 0.00737573 -0.0132591 0.00681884 0.00681617 -0.0024303 0.00630655 0.00678131 
0.00131221 0.00654205 0.0076719 0.00913933 0.00675024 0.00741355 0.0160738 0.00502827 0.00854562 
0.0204353 0.00726694 0.00864297 0.0059979 0.00814347 0.00768135 0.0126647 0.0078517 0.0065817 
0.0156576 0.0082621 0.00736732 -0.0108937 0.0100196 0.00681235 -0.00367945 0.0101822 0.00792591 
0.000185027 0.0103282 0.00879476 0.0102285 0.0106236 0.00716721 0.0179574 0.0101241 0.0087744 
0.0320944 0.0111736 0.00816836 -0.0119614 0.0136265 0.00716259 -0.00462224 0.0133122 0.00808313 
-0.00126057 0.013054 0.00810965 0.0126116 0.0125851 0.00635392 0.0153874 0.0148865 0.00762546 
0.0202572 0.0125564 0.00875674 -0.00868567 0.0174481 0.00832004 -0.00563041 0.0172606 0.0082101 
0.00635557 0.0161548 0.008227 0.0176129 0.0173482 0.0086716 0.0235866 0.017148 0.00731669 
0.0289889 0.0151195 0.00634914 0.00159293 0.0191699 0.00674751 0.0203112 0.017756 0.00716423 
0.0276684 0.0195699 0.00721381 0.00341079 0.0210529 0.00857727 0.00695686 0.0202072 0.00780279 
0.0168129 0.0202362 0.00717101 -0.00891125 0.0235847 0.00644483 -0.00412156 0.02381 0.00816958 
0.0051068 0.0244823 0.00681857 0.0189909 0.0242951 0.00777794 0.0257559 0.023818 0.0067369 
-0.0060461 0.0267733 0.00815635 0.00367014 0.0272729 0.00724451 0.00907842 0.0251676 0.00756475 
0.0115389 0.0273564 0.00804339 0.0235368 0.0269292 0.00663741 -0.00210121 0.0280225 0.00656433 
0.00790359 0.0283935 0.00833472 0.0147609 0.0286143 0.00861115 0.0223322 0.0297052 0.00713786 
0.00563407 0.032783 0.0068918 0.0121284 0.0333828 0.00710505 -0.00279661 0.00161336 0.0101889 
0.0223745 0.00172767 0.00905996 0.0248585 0.00160936 0.0110086 0.00508423 0.00397485 0.0100711 
0.0189416 0.00416222 0.00979842 0.0321236 0.00478712 0.0106155 -0.0110994 0.00530144 0.010378 
[...]
POINT_DATA 750
FIELD FieldData 7
id 1 750 int
10 18 49 41 26 13 45 48 58 
25 9 29 2 38 7 21 23 51 
44 19 34 12 1 56 3 27 22 
40 30 4 47 16 50 55 42 6 
52 20 37 36 24 5 46 53 32 
17 35 31 15 11 54 28 8 33 
14 57 43 39 280 254 263 290 266 
251 285 294 302 253 268 273 260 300 
274 291 308 299 289 301 297 256 295 
264 270 269 305 255 287 265 271 281 
304 276 261 309 262 282 252 267 296 
272 298 306 277 258 257 278 284 259 
293 283 275 286 307 292 303 288 279 
531 520 501 524 548 549 528 532 536 
517 556 512 529 554 558 504 508 552 
526 518 521 534 503 507 506 545 513 
527 541 557 547 551 515 535 544 533 
502 525 522 540 542 519 539 505 510 
550 511 509 543 555 516 546 538 523 
553 530 537 514 191 104 132 138 101 
89 73 66 160 209 212 202 242 234 
128 85 237 61 149 230 100 145 243 
112 157 169 244 210 152 250 222 80 
137 163 120 211 238 90 64 180 126 
97 226 127 182 95 196 168 106 184 
188 159 143 140 98 148 187 156 139 
91 207 134 232 205 141 83 102 235 
68 72 65 136 144 122 118 113 67 
131 220 63 161 215 108 70 206 99 
74 216 150 217 189 62 147 223 194 
87 154 208 146 110 179 121 75 231 
249 197 86 77 192 133 190 236 151 
153 170 177 224 111 171 239 233 107 
186 164 69 119 218 214 172 246 158 
129 185 92 193 96 173 94 130 93 
248 135 123 213 142 165 88 183 166 
203 78 59 178 175 227 181 116 155 
109 124 245 79 221 115 60 84 71 
82 167 114 219 228 103 174 105 162 
225 195 81 76 176 200 125 247 199 
229 204 198 241 201 240 117 416 397 
369 469 434 499 378 380 452 423 338 
331 398 384 433 313 354 453 493 455 
466 352 343 476 317 405 497 488 342 
492 428 415 490 409 462 368 472 427 
471 467 385 394 322 444 412 310 379 
436 366 430 447 451 367 463 418 349 
484 437 353 360 325 334 500 459 320 
392 486 323 383 357 449 440 363 359 
429 382 314 413 362 333 475 425 498 
374 403 470 396 456 448 350 473 361 
327 408 312 346 387 348 371 386 481 
465 332 319 318 400 435 364 376 485 
399 341 458 315 402 432 326 351 370 
401 487 339 477 393 457 468 417 389 
482 344 365 330 328 450 335 316 460 
419 438 454 355 489 445 410 345 358 
340 446 311 421 324 424 337 494 321 
480 375 461 373 483 411 420 406 414 
474 391 377 395 336 347 407 404 495 
479 464 390 491 356 442 388 422 381 
426 439 372 329 496 441 431 443 478 
698 703 695 747 655 678 670 656 727 
593 619 625 707 606 682 654 650 599 
624 700 713 742 585 598 743 672 586 
590 674 576 702 618 734 616 638 696 
735 571 640 749 649 642 632 685 679 
647 711 645 566 724 579 563 607 718 
584 736 561 562 610 721 710 723 622 
634 748 715 578 570 714 691 697 722 
595 662 644 559 728 628 750 604 740 
560 592 631 564 690 652 574 573 603 
613 577 709 648 633 701 596 673 629 
659 738 730 680 611 664 669 582 653 
658 609 626 591 637 692 719 683 605 
745 583 636 614 660 739 588 594 725 
600 587 741 581 575 597 643 620 651 
608 708 615 746 639 686 681 668 693 
565 601 675 732 689 688 717 731 744 
627 684 705 589 666 569 657 726 677 
671 630 580 617 568 706 737 646 733 
694 676 667 665 621 712 687 716 602 
661 720 623 635 641 729 699 612 704 
567 663 572 
type 1 750 int
1 1 1 1 1 1 1 1 1 
1 1 1 1 1 1 1 1 1 
1 1 1 1 1 1 1 1 1 
1 1 1 1 1 1 1 1 1 
1 1 1 1 1 1 1 1 1 
1 1 1 1 1 1 1 1 1 
1 1 1 1 1 1 1 1 1 
1 1 1 1 1 1 1 1 1 
1 1 1 1 1 1 1 1 1 
1 1 1 1 1 1 1 1 1 
1 1 1 1 1 1 1 1 1 
1 1 1 1 1 1 1 1 1 
1 1 1 1 1 1 1 1 1 
1 1 1 1 1 1 1 1 1 
1 1 1 1 1 1 1 1 1 
1 1 1 1 1 1 1 1 1 
1 1 1 1 1 1 1 1 1 
1 1 1 1 1 1 1 1 1 
1 1 1 1 1 1 1 1 1 
1 1 1 1 1 1 1 1 1 
1 1 1 1 1 1 1 1 1 
1 1 1 1 1 1 1 1 1 
1 1 1 1 1 1 1 1 1 
1 1 1 1 1 1 1 1 1 
1 1 1 1 1 1 1 1 1 
1 1 1 1 1 1 1 1 1 
1 1 1 1 1 1 1 1 1 
1 1 1 1 1 1 1 1 1 
1 1 1 1 1 1 1 1 1 
1 1 1 1 1 1 1 1 1 
1 1 1 1 1 1 1 1 1 
1 1 1 1 1 1 1 1 1 
1 1 1 1 1 1 1 1 1 
1 1 1 1 1 1 1 1 1 
1 1 1 1 1 1 1 1 1 
1 1 1 1 1 1 1 1 1 
1 1 1 1 1 1 1 1 1 
1 1 1 1 1 1 1 1 1 
1 1 1 1 1 1 1 1 1 
1 1 1 1 1 1 1 1 1 
1 1 1 1 1 1 1 1 1 
1 1 1 1 1 1 1 1 1 
1 1 1 1 1 1 1 1 1 
1 1 1 1 1 1 1 1 1 
1 1 1 1 1 1 1 1 1 
1 1 1 1 1 1 1 1 1 
1 1 1 1 1 1 1 1 1 
1 1 1 1 1 1 1 1 1 
1 1 1 1 1 1 1 1 1 
1 1 1 1 1 1 1 1 1 
1 1 1 1 1 1 1 1 1 
1 1 1 1 1 1 1 1 1 
1 1 1 1 1 1 1 1 1 
1 1 1 1 1 1 1 1 1 
1 1 1 1 1 1 1 1 1 
1 1 1 1 1 1 1 1 1 
1 1 1 1 1 1 1 1 1 
1 1 1 1 1 1 1 1 1 
1 1 1 1 1 1 1 1 1 
1 1 1 1 1 1 1 1 1 
1 1 1 1 1 1 1 1 1 
1 1 1 1 1 1 1 1 1 
1 1 1 1 1 1 1 1 1 
1 1 1 1 1 1 1 1 1 
1 1 1 1 1 1 1 1 1 
1 1 1 1 1 1 1 1 1 
1 1 1 1 1 1 1 1 1 
1 1 1 1 1 1 1 1 1 
1 1 1 1 1 1 1 1 1 
1 1 1 1 1 1 1 1 1 
1 1 1 1 1 1 1 1 1 
1 1 1 1 1 1 1 1 1 
1 1 1 1 1 1 1 1 1 
1 1 1 1 1 1 1 1 1 
1 1 1 1 1 1 1 1 1 
1 1 1 1 1 1 1 1 1 
1 1 1 1 1 1 1 1 1 
1 1 1 1 1 1 1 1 1 
1 1 1 1 1 1 1 1 1 
1 1 1 1 1 1 1 1 1 
1 1 1 1 1 1 1 1 1 
1 1 1 1 1 1 1 1 1 
1 1 1 1 1 1 1 1 1 
1 1 1 
i 3 750 int
0 0 0 0 0 0 0 0 0 
0 0 0 0 0 0 0 0 0 
0 0 0 0 0 0 0 0 0 
0 0 0 0 0 0 0 0 0 
0 0 0 0 0 0 0 0 0 
0 0 0 0 0 0 0 0 0 
0 0 0 0 0 0 0 0 0 
0 0 0 0 0 0 0 0 0 
0 0 0 0 0 0 0 0 0 
0 0 0 0 0 0 0 0 0 
0 0 0 0 0 0 0 0 0 
0 0 0 0 0 0 0 0 0 
0 0 0 0 0 0 0 0 0 
0 0 0 0 0 0 0 0 0 
0 0 0 0 0 0 0 0 0 
0 0 0 0 0 0 0 0 0 
0 0 0 0 0 0 0 0 0 
0 0 0 0 0 0 0 0 0 
0 0 0 0 0 0 0 0 0 
0 0 0 0 0 0 0 0 0 
0 0 0 0 0 0 0 0 0 
0 0 0 0 0 0 0 0 0 
0 0 0 0 0 0 0 0 0 
0 0 0 0 0 0 0 0 0 
0 0 0 0 0 0 0 0 0 
0 0 0 0 0 0 0 0 0 
0 0 0 0 0 0 0 0 0 
0 0 0 0 0 0 0 0 0 
0 0 0 0 0 0 0 0 0 
0 0 0 0 0 0 0 0 0 
0 0 0 0 0 0 0 0 0 
0 0 0 0 0 0 0 0 0 
0 0 0 0 0 0 0 0 0 
0 0 0 0 0 0 0 0 0 
0 0 0 0 0 0 0 0 0 
0 0 0 0 0 0 0 0 0 
0 0 0 0 0 0 0 0 0 
0 0 0 0 0 0 0 0 0 
0 0 0 0 0 0 0 0 0 
0 0 0 0 0 0 0 0 0 
0 0 0 0 0 0 0 0 0 
0 0 0 0 0 0 0 0 0 
0 0 0 0 0 0 0 0 0 
0 0 0 0 0 0 0 0 0 
0 0 0 0 0 0 0 0 0 
0 0 0 0 0 0 0 0 0 
0 0 0 0 0 0 0 0 0 
0 0 0 0 0 0 0 0 0 
0 0 0 0 0 0 0 0 0 
0 0 0 0 0 0 0 0 0 
0 0 0 0 0 0 0 0 0 
0 0 0 0 0 0 0 0 0 
0 0 0 0 0 0 0 0 0 
0 0 0 0 0 0 0 0 0 
0 0 0 0 0 0 0 0 0 
0 0 0 0 0 0 0 0 0 
0 0 0 0 0 0 0 0 0 
0 0 0 0 0 0 0 0 0 
0 0 0 0 0 0 0 0 0 
0 0 0 0 0 0 0 0 0 
0 0 0 0 0 0 0 0 0 
0 0 0 0 0 0 0 0 0 
0 0 0 0 0 0 0 0 0 
0 0 0 0 0 0 0 0 0 
0 0 0 0 0 0 0 0 0 
0 0 0 0 0 0 0 0 0 
0 0 0 0 0 0 0 0 0 
0 0 0 0 0 0 0 0 0 
0 0 0 0 0 0 0 0 0 
0 0 0 0 0 0 0 0 0 
0 0 0 0 0 0 0 0 0 
0 0 0 0 0 0 0 0 0 
0 0 0 0 0 0 0 0 0 
0 0 0 0 0 0 0 0 0 
0 0 0 0 0 0 0 0 0 
0 0 0 0 0 0 0 0 0 
0 0 0 0 0 0 0 0 0 
0 0 0 0 0 0 0 0 0 
0 0 0 0 0 0 0 0 0 
0 0 0 0 0 0 0 0 0 
0 0 0 0 0 0 0 0 0 
0 0 0 0 0 0 0 0 0 
0 0 0 0 0 0 0 0 0 
0 0 0 0 0 0 0 0 0 
0 0 0 0 0 0 0 0 0 
0 0 0 0 0 0 0 0 0 
0 0 0 0 0 0 0 0 0 
0 0 0 0 0 0 0 0 0 
0 0 0 0 0 0 0 0 0 
0 0 0 0 0 0 0 0 0 
0 0 0 0 0 0 0 0 0 
0 0 0 0 0 0 0 0 0 
0 0 0 0 0 0 0 0 0 
0 0 0 0 0 0 0 0 0 
0 0 0 0 0 0 0 0 0 
0 0 0 0 0 0 0 0 0 
0 0 0 0 0 0 0 0 0 
0 0 0 0 0 0 0 0 0 
0 0 0 0 0 0 0 0 0 
0 0 0 0 0 0 0 0 0 
0 0 0 0 0 0 0 0 0 
0 0 0 0 0 0 0 0 0 
0 0 0 0 0 0 0 0 0 
0 0 0 0 0 0 0 0 0 
0 0 0 0 0 0 0 0 0 
0 0 0 0 0 0 0 0 0 
0 0 0 0 0 0 0 0 0 
0 0 0 0 0 0 0 0 0 
0 0 0 0 0 0 0 0 0 
0 0 0 0 0 0 0 0 0 
0 0 0 0 0 0 0 0 0 
0 0 0 0 0 0 0 0 0 
0 0 0 0 0 0 0 0 0 
0 0 0 0 0 0 0 0 0 
0 0 0 0 0 0 0 0 0 
0 0 0 0 0 0 0 0 0 
0 0 0 0 0 0 0 0 0 
0 0 0 0 0 0 0 0 0 
0 0 0 0 0 0 0 0 0 
0 0 0 0 0 0 0 0 0 
0 0 0 0 0 0 0 0 0 
0 0 0 0 0 0 0 0 0 
0 0 0 0 0 0 0 0 0 
0 0 0 0 0 0 0 0 0 
0 0 0 0 0 0 0 0 0 
0 0 0 0 0 0 0 0 0 
0 0 0 0 0 0 0 0 0 
0 0 0 0 0 0 0 0 0 
0 0 0 0 0 0 0 0 0 
0 0 0 0 0 0 0 0 0 
0 0 0 0 0 0 0 0 0 
0 0 0 0 0 0 0 0 0 
0 0 0 0 0 0 0 0 0 
0 0 0 0 0 0 0 0 0 
0 0 0 0 0 0 0 0 0 
0 0 0 0 0 0 0 0 0 
0 0 0 0 0 0 0 0 0 
0 0 0 0 0 0 0 0 0 
0 0 0 0 0 0 0 0 0 
0 0 0 0 0 0 0 0 0 
0 0 0 0 0 0 0 0 0 
0 0 0 0 0 0 0 0 0 
0 0 0 0 0 0 0 0 0 
0 0 0 0 0 0 0 0 0 
0 0 0 0 0 0 0 0 0 
0 0 0 0 0 0 0 0 0 
0 0 0 0 0 0 0 0 0 
0 0 0 0 0 0 0 0 0 
0 0 0 0 0 0 0 0 0 
0 0 0 0 0 0 0 0 0 
0 0 0 0 0 0 0 0 0 
0 0 0 0 0 0 0 0 0 
0 0 0 0 0 0 0 0 0 
0 0 0 0 0 0 0 0 0 
0 0 0 0 0 0 0 0 0 
0 0 0 0 0 0 0 0 0 
0 0 0 0 0 0 0 0 0 
0 0 0 0 0 0 0 0 0 
0 0 0 0 0 0 0 0 0 
0 0 0 0 0 0 0 0 0 
0 0 0 0 0 0 0 0 0 
0 0 0 0 0 0 0 0 0 
0 0 0 0 0 0 0 0 0 
0 0 0 0 0 0 0 0 0 
0 0 0 0 0 0 0 0 0 
0 0 0 0 0 0 0 0 0 
0 0 0 0 0 0 0 0 0 
0 0 0 0 0 0 0 0 0 
0 0 0 0 0 0 0 0 0 
0 0 0 0 0 0 0 0 0 
0 0 0 0 0 0 0 0 0 
0 0 0 0 0 0 0 0 0 
0 0 0 0 0 0 0 0 0 
0 0 0 0 0 0 0 0 0 
0 0 0 0 0 0 0 0 0 
0 0 0 0 0 0 0 0 0 
0 0 0 0 0 0 0 0 0 
0 0 0 0 0 0 0 0 0 
0 0 0 0 0 0 0 0 0 
0 0 0 0 0 0 0 0 0 
0 0 0 0 0 0 0 0 0 
0 0 0 0 0 0 0 0 0 
0 0 0 0 0 0 0 0 0 
0 0 0 0 0 0 0 0 0 
0 0 0 0 0 0 0 0 0 
0 0 0 0 0 0 0 0 0 
0 0 0 0 0 0 0 0 0 
0 0 0 0 0 0 0 0 0 
0 0 0 0 0 0 0 0 0 
0 0 0 0 0 0 0 0 0 
0 0 0 0 0 0 0 0 0 
0 0 0 0 0 0 0 0 0 
0 0 0 0 0 0 0 0 0 
0 0 0 0 0 0 0 0 0 
0 0 0 0 0 0 0 0 0 
0 0 0 0 0 0 0 0 0 
0 0 0 0 0 0 0 0 0 
0 0 0 0 0 0 0 0 0 
0 0 0 0 0 0 0 0 0 
0 0 0 0 0 0 0 0 0 
0 0 0 0 0 0 0 0 0 
0 0 0 0 0 0 0 0 0 
0 0 0 0 0 0 0 0 0 
0 0 0 0 0 0 0 0 0 
0 0 0 0 0 0 0 0 0 
0 0 0 0 0 0 0 0 0 
0 0 0 0 0 0 0 0 0 
0 0 0 0 0 0 0 0 0 
0 0 0 0 0 0 0 0 0 
0 0 0 0 0 0 0 0 0 
0 0 0 0 0 0 0 0 0 
0 0 0 0 0 0 0 0 0 
0 0 0 0 0 0 0 0 0 
0 0 0 0 0 0 0 0 0 
0 0 0 0 0 0 0 0 0 
0 0 0 0 0 0 0 0 0 
0 0 0 0 0 0 0 0 0 
0 0 0 0 0 0 0 0 0 
0 0 0 0 0 0 0 0 0 
0 0 0 0 0 0 0 0 0 
0 0 0 0 0 0 0 0 0 
0 0 0 0 0 0 0 0 0 
0 0 0 0 0 0 0 0 0 
0 0 0 0 0 0 0 0 0 
0 0 0 0 0 0 0 0 0 
0 0 0 0 0 0 0 0 0 
0 0 0 0 0 0 0 0 0 
0 0 0 0 0 0 0 0 0 
0 0 0 0 0 0 0 0 0 
0 0 0 0 0 0 0 0 0 
0 0 0 0 0 0 0 0 0 
0 0 0 0 0 0 0 0 0 
0 0 0 0 0 0 0 0 0 
0 0 0 0 0 0 0 0 0 
0 0 0 0 0 0 0 0 0 
0 0 0 0 0 0 0 0 0 
0 0 0 0 0 0 0 0 0 
0 0 0 0 0 0 0 0 0 
0 0 0 0 0 0 0 0 0 
0 0 0 0 0 0 0 0 0 
0 0 0 0 0 0 0 0 0 
0 0 0 0 0 0 0 0 0 
0 0 0 0 0 0 0 0 0 
0 0 0 0 0 0 0 0 0 
0 0 0 0 0 0 0 0 0 
0 0 0 0 0 0 0 0 0 
0 0 0 0 0 0 0 0 0 
0 0 0 0 0 0 0 0 0 
0 0 0 0 0 0 0 0 0 
0 0 0 0 0 0 0 0 0 

v 3 750 double
0 0 -0.98475095 0 0 -0.98475095 0 0 -0.98475095 
0 0 -0.98475095 0 0 -0.98475095 0 0 -0.98475095 
0 0 -0.98475095 0 0 -0.98475095 0 0 -0.98475095 
0 0 -0.98475095 0 0 -0.98475095 0 0 -0.98475095 
0 0 -0.98475095 0 0 -0.98475095 0 0 -0.98475095 
0 0 -0.98475095 0 0 -0.98475095 0 0 -0.98475095 
0 0 -0.98475095 0 0 -0.98475095 0 0 -0.98475095 
0 0 -0.98475095 0 0 -0.98475095 0 0 -0.98475095 
0 0 -0.98475095 0 0 -0.98475095 0 0 -0.98475095 
0 0 -0.98475095 0 0 -0.98475095 0 0 -0.98475095 
0 0 -0.98475095 0 0 -0.98475095 0 0 -0.98475095 
0 0 -0.98475095 0 0 -0.98475095 0 0 -0.98475095 
0 0 -0.98475095 0 0 -0.98475095 0 0 -0.98475095 
0 0 -0.98475095 0 0 -0.98475095 0 0 -0.98475095 
0 0 -0.98475095 0 0 -0.98475095 0 0 -0.98475095 
0 0 -0.98475095 0 0 -0.98475095 0 0 -0.98475095 
0 0 -0.98475095 0 0 -0.98475095 0 0 -0.98475095 
0 0 -0.98475095 0 0 -0.98475095 0 0 -0.98475095 
0 0 -0.98475095 0 0 -0.98475095 0 0 -0.98475095 
0 0 -0.98475095 0 0 -0.69045095 0 0 -0.69045095 
0 0 -0.69045095 0 0 -0.69045095 0 0 -0.69045095 
0 0 -0.69045095 0 0 -0.69045095 0 0 -0.69045095 
0 0 -0.69045095 0 0 -0.69045095 0 0 -0.69045095 
0 0 -0.69045095 0 0 -0.69045095 0 0 -0.69045095 
0 0 -0.69045095 0 0 -0.69045095 0 0 -0.69045095 
0 0 -0.69045095 0 0 -0.69045095 0 0 -0.69045095 
0 0 -0.69045095 0 0 -0.69045095 0 0 -0.69045095 
0 0 -0.69045095 0 0 -0.69045095 0 0 -0.69045095 
0 0 -0.69045095 0 0 -0.69045095 0 0 -0.69045095 
0 0 -0.69045095 0 0 -0.69045095 0 0 -0.69045095 
0 0 -0.69045095 0 0 -0.69045095 0 0 -0.69045095 
0 0 -0.69045095 0 0 -0.69045095 0 0 -0.69045095 
0 0 -0.69045095 0 0 -0.69045095 0 0 -0.69045095 
0 0 -0.69045095 0 0 -0.69045095 0 0 -0.69045095 
0 0 -0.69045095 0 0 -0.69045095 0 0 -0.69045095 
0 0 -0.69045095 0 0 -0.69045095 0 0 -0.69045095 
0 0 -0.69045095 0 0 -0.69045095 0 0 -0.69045095 
0 0 -0.69045095 0 0 -0.69045095 0 0 -0.69045095 
0 0 -0.69045095 0 0 -0.69045095 0 0 -0.69045095 
0 0 -0.39615095 0 0 -0.39615095 0 0 -0.39615095 
0 0 -0.39615095 0 0 -0.39615095 0 0 -0.39615095 
0 0 -0.39615095 0 0 -0.39615095 0 0 -0.39615095 
0 0 -0.39615095 0 0 -0.39615095 0 0 -0.39615095 
0 0 -0.39615095 0 0 -0.39615095 0 0 -0.39615095 
0 0 -0.39615095 0 0 -0.39615095 0 0 -0.39615095 
0 0 -0.39615095 0 0 -0.39615095 0 0 -0.39615095 
0 0 -0.39615095 0 0 -0.39615095 0 0 -0.39615095 
0 0 -0.39615095 0 0 -0.39615095 0 0 -0.39615095 
0 0 -0.39615095 0 0 -0.39615095 0 0 -0.39615095 
0 0 -0.39615095 0 0 -0.39615095 0 0 -0.39615095 
0 0 -0.39615095 0 0 -0.39615095 0 0 -0.39615095 
0 0 -0.39615095 0 0 -0.39615095 0 0 -0.39615095 
0 0 -0.39615095 0 0 -0.39615095 0 0 -0.39615095 
0 0 -0.39615095 0 0 -0.39615095 0 0 -0.39615095 
0 0 -0.39615095 0 0 -0.39615095 0 0 -0.39615095 
0 0 -0.39615095 0 0 -0.39615095 0 0 -0.39615095 
0 0 -0.39615095 0 0 -0.39615095 0 0 -0.39615095 
0 0 -0.39615095 0 0 -0.39615095 0 0 -0.39615095 
0 0 -0.39615095 0 0 -0.98475095 0 0 -0.98475095 
0 0 -0.98475095 0 0 -0.98475095 0 0 -0.98475095 
0 0 -0.98475095 0 0 -0.98475095 0 0 -0.98475095 
0 0 -0.98475095 0 0 -0.98475095 0 0 -0.98475095 
0 0 -0.98475095 0 0 -0.98475095 0 0 -0.98475095 
0 0 -0.98475095 0 0 -0.98475095 0 0 -0.98475095 
0 0 -0.98475095 0 0 -0.98475095 0 0 -0.98475095 
0 0 -0.98475095 0 0 -0.98475095 0 0 -0.98475095 
0 0 -0.98475095 0 0 -0.98475095 0 0 -0.98475095 
0 0 -0.98475095 0 0 -0.98475095 0 0 -0.98475095 
0 0 -0.98475095 0 0 -0.98475095 0 0 -0.98475095 
0 0 -0.98475095 0 0 -0.98475095 0 0 -0.98475095 
0 0 -0.98475095 0 0 -0.98475095 0 0 -0.98475095 
0 0 -0.98475095 0 0 -0.98475095 0 0 -0.98475095 
0 0 -0.98475095 0 0 -0.98475095 0 0 -0.98475095 
0 0 -0.98475095 0 0 -0.98475095 0 0 -0.98475095 
0 0 -0.98475095 0 0 -0.98475095 0 0 -0.98475095 
0 0 -0.98475095 0 0 -0.98475095 0 0 -0.98475095 
0 0 -0.98475095 0 0 -0.98475095 0 0 -0.98475095 
0 0 -0.98475095 0 0 -0.98475095 0 0 -0.98475095 
0 0 -0.98475095 0 0 -0.98475095 0 0 -0.98475095 
0 0 -0.98475095 0 0 -0.98475095 0 0 -0.98475095 
0 0 -0.98475095 0 0 -0.98475095 0 0 -0.98475095 
0 0 -0.98475095 0 0 -0.98475095 0 0 -0.98475095 
0 0 -0.98475095 0 0 -0.98475095 0 0 -0.98475095 
0 0 -0.98475095 0 0 -0.98475095 0 0 -0.98475095 
0 0 -0.98475095 0 0 -0.98475095 0 0 -0.98475095 
0 0 -0.98475095 0 0 -0.98475095 0 0 -0.98475095 
0 0 -0.98475095 0 0 -0.98475095 0 0 -0.98475095 
0 0 -0.98475095 0 0 -0.98475095 0 0 -0.98475095 
0 0 -0.98475095 0 0 -0.98475095 0 0 -0.98475095 
0 0 -0.98475095 0 0 -0.98475095 0 0 -0.98475095 
0 0 -0.98475095 0 0 -0.98475095 0 0 -0.98475095 
0 0 -0.98475095 0 0 -0.98475095 0 0 -0.98475095 
0 0 -0.98475095 0 0 -0.98475095 0 0 -0.98475095 
0 0 -0.98475095 0 0 -0.98475095 0 0 -0.98475095 
0 0 -0.98475095 0 0 -0.98475095 0 0 -0.98475095 
0 0 -0.98475095 0 0 -0.98475095 0 0 -0.98475095 
0 0 -0.98475095 0 0 -0.98475095 0 0 -0.98475095 
0 0 -0.98475095 0 0 -0.98475095 0 0 -0.98475095 
0 0 -0.98475095 0 0 -0.98475095 0 0 -0.98475095 
0 0 -0.98475095 0 0 -0.98475095 0 0 -0.98475095 
0 0 -0.98475095 0 0 -0.98475095 0 0 -0.98475095 
0 0 -0.98475095 0 0 -0.98475095 0 0 -0.98475095 
0 0 -0.98475095 0 0 -0.98475095 0 0 -0.98475095 
0 0 -0.98475095 0 0 -0.98475095 0 0 -0.98475095 
0 0 -0.98475095 0 0 -0.98475095 0 0 -0.98475095 
0 0 -0.98475095 0 0 -0.98475095 0 0 -0.98475095 
0 0 -0.98475095 0 0 -0.98475095 0 0 -0.98475095 
0 0 -0.98475095 0 0 -0.98475095 0 0 -0.98475095 
0 0 -0.98475095 0 0 -0.98475095 0 0 -0.98475095 
0 0 -0.98475095 0 0 -0.98475095 0 0 -0.98475095 
0 0 -0.98475095 0 0 -0.98475095 0 0 -0.98475095 
0 0 -0.98475095 0 0 -0.98475095 0 0 -0.98475095 
0 0 -0.98475095 0 0 -0.98475095 0 0 -0.98475095 
0 0 -0.98475095 0 0 -0.98475095 0 0 -0.98475095 
0 0 -0.98475095 0 0 -0.98475095 0 0 -0.98475095 
0 0 -0.98475095 0 0 -0.98475095 0 0 -0.98475095 
0 0 -0.98475095 0 0 -0.98475095 0 0 -0.98475095 
0 0 -0.98475095 0 0 -0.98475095 0 0 -0.98475095 
0 0 -0.98475095 0 0 -0.98475095 0 0 -0.98475095 
0 0 -0.98475095 0 0 -0.98475095 0 0 -0.98475095 
0 0 -0.98475095 0 0 -0.98475095 0 0 -0.98475095 
0 0 -0.98475095 0 0 -0.98475095 0 0 -0.98475095 
0 0 -0.98475095 0 0 -0.69045095 0 0 -0.69045095 
0 0 -0.69045095 0 0 -0.69045095 0 0 -0.69045095 
0 0 -0.69045095 0 0 -0.69045095 0 0 -0.69045095 
0 0 -0.69045095 0 0 -0.69045095 0 0 -0.69045095 
0 0 -0.69045095 0 0 -0.69045095 0 0 -0.69045095 
0 0 -0.69045095 0 0 -0.69045095 0 0 -0.69045095 
0 0 -0.69045095 0 0 -0.69045095 0 0 -0.69045095 
0 0 -0.69045095 0 0 -0.69045095 0 0 -0.69045095 
0 0 -0.69045095 0 0 -0.69045095 0 0 -0.69045095 
0 0 -0.69045095 0 0 -0.69045095 0 0 -0.69045095 
0 0 -0.69045095 0 0 -0.69045095 0 0 -0.69045095 
0 0 -0.69045095 0 0 -0.69045095 0 0 -0.69045095 
0 0 -0.69045095 0 0 -0.69045095 0 0 -0.69045095 
0 0 -0.69045095 0 0 -0.69045095 0 0 -0.69045095 
0 0 -0.69045095 0 0 -0.69045095 0 0 -0.69045095 
0 0 -0.69045095 0 0 -0.69045095 0 0 -0.69045095 
0 0 -0.69045095 0 0 -0.69045095 0 0 -0.69045095 
0 0 -0.69045095 0 0 -0.69045095 0 0 -0.69045095 
0 0 -0.69045095 0 0 -0.69045095 0 0 -0.69045095 
0 0 -0.69045095 0 0 -0.69045095 0 0 -0.69045095 
0 0 -0.69045095 0 0 -0.69045095 0 0 -0.69045095 
0 0 -0.69045095 0 0 -0.69045095 0 0 -0.69045095 
0 0 -0.69045095 0 0 -0.69045095 0 0 -0.69045095 
0 0 -0.69045095 0 0 -0.69045095 0 0 -0.69045095 
0 0 -0.69045095 0 0 -0.69045095 0 0 -0.69045095 
0 0 -0.69045095 0 0 -0.69045095 0 0 -0.69045095 
0 0 -0.69045095 0 0 -0.69045095 0 0 -0.69045095 
0 0 -0.69045095 0 0 -0.69045095 0 0 -0.69045095 
0 0 -0.69045095 0 0 -0.69045095 0 0 -0.69045095 
0 0 -0.69045095 0 0 -0.69045095 0 0 -0.69045095 
0 0 -0.69045095 0 0 -0.69045095 0 0 -0.69045095 
0 0 -0.69045095 0 0 -0.69045095 0 0 -0.69045095 
0 0 -0.69045095 0 0 -0.69045095 0 0 -0.69045095 
0 0 -0.69045095 0 0 -0.69045095 0 0 -0.69045095 
0 0 -0.69045095 0 0 -0.69045095 0 0 -0.69045095 
0 0 -0.69045095 0 0 -0.69045095 0 0 -0.69045095 
0 0 -0.69045095 0 0 -0.69045095 0 0 -0.69045095 
0 0 -0.69045095 0 0 -0.69045095 0 0 -0.69045095 
0 0 -0.69045095 0 0 -0.69045095 0 0 -0.69045095 
0 0 -0.69045095 0 0 -0.69045095 0 0 -0.69045095 
0 0 -0.69045095 0 0 -0.69045095 0 0 -0.69045095 
0 0 -0.69045095 0 0 -0.69045095 0 0 -0.69045095 
0 0 -0.69045095 0 0 -0.69045095 0 0 -0.69045095 
0 0 -0.69045095 0 0 -0.69045095 0 0 -0.69045095 
0 0 -0.69045095 0 0 -0.69045095 0 0 -0.69045095 
0 0 -0.69045095 0 0 -0.69045095 0 0 -0.69045095 
0 0 -0.69045095 0 0 -0.69045095 0 0 -0.69045095 
0 0 -0.69045095 0 0 -0.69045095 0 0 -0.69045095 
0 0 -0.69045095 0 0 -0.69045095 0 0 -0.69045095 
0 0 -0.69045095 0 0 -0.69045095 0 0 -0.69045095 
0 0 -0.69045095 0 0 -0.69045095 0 0 -0.69045095 
0 0 -0.69045095 0 0 -0.69045095 0 0 -0.69045095 
0 0 -0.69045095 0 0 -0.69045095 0 0 -0.69045095 
0 0 -0.69045095 0 0 -0.69045095 0 0 -0.69045095 
0 0 -0.69045095 0 0 -0.69045095 0 0 -0.69045095 
0 0 -0.69045095 0 0 -0.69045095 0 0 -0.69045095 
0 0 -0.69045095 0 0 -0.69045095 0 0 -0.69045095 
0 0 -0.69045095 0 0 -0.69045095 0 0 -0.69045095 
0 0 -0.69045095 0 0 -0.69045095 0 0 -0.69045095 
0 0 -0.69045095 0 0 -0.69045095 0 0 -0.69045095 
0 0 -0.69045095 0 0 -0.69045095 0 0 -0.69045095 
0 0 -0.69045095 0 0 -0.69045095 0 0 -0.69045095 
0 0 -0.69045095 0 0 -0.69045095 0 0 -0.69045095 
0 0 -0.69045095 0 0 -0.69045095 0 0 -0.69045095 
0 0 -0.39615095 0 0 -0.39615095 0 0 -0.39615095 
0 0 -0.39615095 0 0 -0.39615095 0 0 -0.39615095 
0 0 -0.39615095 0 0 -0.39615095 0 0 -0.39615095 
0 0 -0.39615095 0 0 -0.39615095 0 0 -0.39615095 
0 0 -0.39615095 0 0 -0.39615095 0 0 -0.39615095 
0 0 -0.39615095 0 0 -0.39615095 0 0 -0.39615095 
0 0 -0.39615095 0 0 -0.39615095 0 0 -0.39615095 
0 0 -0.39615095 0 0 -0.39615095 0 0 -0.39615095 
0 0 -0.39615095 0 0 -0.39615095 0 0 -0.39615095 
0 0 -0.39615095 0 0 -0.39615095 0 0 -0.39615095 
0 0 -0.39615095 0 0 -0.39615095 0 0 -0.39615095 
0 0 -0.39615095 0 0 -0.39615095 0 0 -0.39615095 
0 0 -0.39615095 0 0 -0.39615095 0 0 -0.39615095 
0 0 -0.39615095 0 0 -0.39615095 0 0 -0.39615095 
0 0 -0.39615095 0 0 -0.39615095 0 0 -0.39615095 
0 0 -0.39615095 0 0 -0.39615095 0 0 -0.39615095 
0 0 -0.39615095 0 0 -0.39615095 0 0 -0.39615095 
0 0 -0.39615095 0 0 -0.39615095 0 0 -0.39615095 
0 0 -0.39615095 0 0 -0.39615095 0 0 -0.39615095 
0 0 -0.39615095 0 0 -0.39615095 0 0 -0.39615095 
0 0 -0.39615095 0 0 -0.39615095 0 0 -0.39615095 
0 0 -0.39615095 0 0 -0.39615095 0 0 -0.39615095 
0 0 -0.39615095 0 0 -0.39615095 0 0 -0.39615095 
0 0 -0.39615095 0 0 -0.39615095 0 0 -0.39615095 
0 0 -0.39615095 0 0 -0.39615095 0 0 -0.39615095 
0 0 -0.39615095 0 0 -0.39615095 0 0 -0.39615095 
0 0 -0.39615095 0 0 -0.39615095 0 0 -0.39615095 
0 0 -0.39615095 0 0 -0.39615095 0 0 -0.39615095 
0 0 -0.39615095 0 0 -0.39615095 0 0 -0.39615095 
0 0 -0.39615095 0 0 -0.39615095 0 0 -0.39615095 