ITEM: TIMESTEP
0
ITEM: NUMBER OF ATOMS
31
ITEM: BOX BOUNDS mm mm ss
-8.47369e-08 8.47369e-08
-8.47369e-08 8.47369e-08
-2.01588e-11 1.05684e-07
ITEM: ATOMS id mol type radius x y z ix iy iz vx vy vz fx fy fz omegax omegay omegaz 
21 1 4 4.075e-09 -1.02773e-08 -2.52564e-08 2.1094e-08 0 0 0 0 0 0 -2.32189e-09 -1.71978e-10 -1.07643e-09 0 0 0 
30 1 9 6.575e-09 1.23512e-08 -4.68178e-08 3.29296e-08 0 0 0 0 0 0 -8.741e-10 -5.79534e-10 7.19478e-10 0 0 0 
32 1 2 3.075e-09 2.10524e-08 -4.98279e-08 3.55214e-08 0 0 0 0 0 0 9.55246e-10 -3.30464e-10 2.84542e-10 0 0 0 
22 1 8 6.075e-09 -1.21619e-09 -2.45853e-08 2.52947e-08 0 0 0 0 0 0 1.18246e-09 8.37513e-10 -1.28906e-09 0 0 0 
27 1 8 6.075e-09 1.6834e-09 -3.42437e-08 3.1825e-08 0 0 0 0 0 0 -8.77256e-10 -1.41846e-09 2.63941e-09 0 0 0 
28 1 1 2.575e-09 6.65325e-09 -3.83486e-08 2.62712e-08 0 0 0 0 0 0 2.81781e-10 -6.78015e-10 -1.40909e-09 0 0 0 
29 1 2 3.075e-09 1.17803e-08 -4.04164e-08 2.58668e-08 0 0 0 0 0 0 9.72358e-10 4.85113e-10 -1.08711e-09 0 0 0 
31 1 8 6.075e-09 6.12139e-09 -2.56503e-08 3.91037e-08 0 0 0 0 0 0 5.18029e-10 -7.93052e-13 4.15318e-10 0 0 0 
24 1 11 8.575e-09 -3.4183e-09 -1.50139e-08 3.60508e-08 0 0 0 0 0 0 -8.4213e-10 2.58143e-10 6.97618e-10 0 0 0 
25 1 4 4.075e-09 -5.53295e-10 -3.31291e-09 3.96477e-08 0 0 0 0 0 0 -1.07735e-10 6.0346e-10 5.7745e-11 0 0 0 
23 1 6 5.075e-09 7.77086e-09 -1.88408e-08 2.22954e-08 0 0 0 0 0 0 7.28059e-10 4.65376e-10 -2.42986e-10 0 0 0 
2 1 7 5.575e-09 -3.41857e-08 1.64439e-08 3.20361e-08 0 0 0 0 0 0 -1.00853e-09 -1.98966e-09 -7.41894e-11 0 0 0 
15 1 8 6.075e-09 1.29749e-08 1.17775e-08 3.24138e-08 0 0 0 0 0 0 -2.08464e-09 9.96385e-11 -1.75594e-09 0 0 0 
16 1 5 4.575e-09 2.08885e-08 1.27307e-08 3.92649e-08 0 0 0 0 0 0 1.18373e-09 6.37347e-10 1.73675e-09 0 0 0 
17 1 7 5.575e-09 1.71205e-08 4.29236e-09 2.45645e-08 0 0 0 0 0 0 1.3814e-10 -2.49419e-10 -2.61554e-10 0 0 0 
18 1 3 3.575e-09 2.82597e-08 9.4812e-09 3.9693e-08 0 0 0 0 0 0 8.81477e-10 -3.88587e-10 5.11883e-11 0 0 0 
1 1 1 2.575e-09 -3.05671e-08 2.35828e-08 3.23023e-08 0 0 0 0 0 0 7.24572e-10 4.55203e-10 -9.78511e-10 0 0 0 
3 1 3 3.575e-09 -2.96609e-08 2.84799e-08 3.56619e-08 0 0 0 0 0 0 -2.93165e-10 1.34449e-09 2.48885e-10 0 0 0 
4 1 2 3.075e-09 -2.59083e-08 2.97151e-08 4.08886e-08 0 0 0 0 0 0 -5.95015e-10 3.35601e-10 5.94583e-10 0 0 0 
5 1 2 3.075e-09 -2.00124e-08 2.89826e-08 4.1941e-08 0 0 0 0 0 0 1.4307e-10 8.14812e-10 -3.06986e-10 0 0 0 
20 1 13 1.0075e-08 1.92028e-08 -7.86164e-09 4.68095e-08 0 0 0 0 0 0 0 0 0 0 0 0 
7 1 8 6.075e-09 -1.2288e-08 1.56334e-08 4.82445e-08 0 0 0 0 0 0 -3.79484e-10 -3.8045e-11 1.3203e-10 0 0 0 
11 1 6 5.075e-09 -2.4213e-10 9.02742e-09 5.74376e-08 0 0 0 0 0 0 2.75404e-10 -1.95397e-09 1.73233e-09 0 0 0 
12 1 4 4.075e-09 -5.39e-09 8.50144e-09 5.00338e-08 0 0 0 0 0 0 -1.17992e-09 -5.85003e-10 -1.01058e-09 0 0 0 
8 1 4 4.075e-09 1.6199e-08 1.81496e-08 5.1372e-08 0 0 0 0 0 0 1.0261e-09 -2.41136e-09 4.38051e-10 0 0 0 
19 1 12 9.075e-09 6.48734e-09 6.36834e-09 4.49589e-08 0 0 0 0 0 0 1.00914e-09 2.97275e-10 2.02799e-10 0 0 0 
6 1 4 4.075e-09 -1.51892e-08 2.4481e-08 4.43605e-08 0 0 0 0 0 0 8.15541e-10 -3.09281e-10 2.30366e-10 0 0 0 
9 1 5 4.575e-09 1.53038e-08 2.61475e-08 4.86101e-08 0 0 0 0 0 0 9.69107e-10 2.59611e-09 -1.55393e-09 0 0 0 
10 1 12 9.075e-09 4.5576e-09 2.21211e-08 5.58441e-08 0 0 0 0 0 0 -1.03261e-09 1.43216e-09 5.75262e-10 0 0 0 
13 1 10 7.575e-09 -1.51549e-09 3.50508e-08 6.43219e-08 0 0 0 0 0 0 1.85384e-09 8.46237e-10 -5.59048e-10 0 0 0 
14 1 4 4.075e-09 -1.20047e-08 3.29957e-08 6.86419e-08 0 0 0 0 0 0 -2.0616e-09 -4.0392e-10 8.49068e-10 0 0 0 
