ITEM: TIMESTEP
10000
ITEM: NUMBER OF ATOMS
31
ITEM: BOX BOUNDS mm mm ss
-8.47369e-08 8.47369e-08
-8.47369e-08 8.47369e-08
-2.01588e-11 1.04184e-07
ITEM: ATOMS id mol type radius x y z ix iy iz vx vy vz fx fy fz omegax omegay omegaz 
30 1 9 6.575e-09 1.24058e-08 -4.68844e-08 3.29651e-08 0 0 0 -0.0275328 -0.0103589 0.041986 -1.14326e-11 4.06185e-12 2.53712e-12 6.98151e+06 3.31623e+06 702342 
32 1 2 3.075e-09 2.11204e-08 -4.98927e-08 3.55837e-08 0 0 0 -0.00638248 -0.0166638 -0.0314302 3.47456e-13 1.80946e-12 -2.6704e-12 1.46006e+08 -5.0877e+07 3.78947e+07 
21 1 4 4.075e-09 -1.03121e-08 -2.52988e-08 2.10659e-08 0 0 0 -0.0137747 -0.0842471 0.00594131 1.11146e-12 9.40944e-12 -1.7859e-12 8.61556e+06 4.12778e+06 -278537 
22 1 8 6.075e-09 -1.22407e-09 -2.46137e-08 2.52735e-08 0 0 0 0.00968415 0.00583075 -0.014763 1.30612e-11 8.83444e-12 1.32315e-11 9.71719e+06 3.37525e+06 -4.05642e+06 
27 1 8 6.075e-09 1.6913e-09 -3.42768e-08 3.18225e-08 0 0 0 0.063965 0.0171792 -0.0397591 -1.98108e-11 -7.2477e-12 -2.0047e-11 7.29521e+06 -330303 -418555 
28 1 1 2.575e-09 6.69597e-09 -3.84112e-08 2.62542e-08 0 0 0 0.067258 0.0518016 -0.0805842 2.85878e-13 1.97304e-12 -2.61184e-12 5.42718e+06 2.87381e+06 -4.7719e+06 
29 1 2 3.075e-09 1.18438e-08 -4.04819e-08 2.58704e-08 0 0 0 0.060026 -0.0156188 0.0321568 3.78531e-12 -3.14678e-13 -1.36079e-12 -1.36311e+07 -4.18417e+07 -1.24334e+07 
31 1 8 6.075e-09 6.12515e-09 -2.56667e-08 3.90903e-08 0 0 0 0.0312437 0.0100659 -0.0286005 1.24826e-11 -8.98442e-12 1.97013e-11 4.56188e+06 179889 2.66247e+06 
24 1 11 8.575e-09 -3.4256e-09 -1.50339e-08 3.60387e-08 0 0 0 -0.00343916 -0.014995 0.00513361 -3.9786e-13 -4.53146e-12 -9.46823e-12 2.87775e+06 2.13667e+06 961724 
25 1 4 4.075e-09 -5.59687e-10 -3.31695e-09 3.96407e-08 0 0 0 -0.000877374 -0.0243746 0.0271058 -4.74197e-12 1.41005e-12 1.37595e-13 2.15395e+06 5.6619e+06 3.63822e+06 
23 1 6 5.075e-09 7.76436e-09 -1.88608e-08 2.22642e-08 0 0 0 -0.0363138 0.0589506 -0.0370083 1.04099e-12 -5.24727e-12 2.37542e-13 1.95917e+06 5.80332e+06 5.17503e+06 
2 1 7 5.575e-09 -3.43196e-08 1.65082e-08 3.19744e-08 0 0 0 0.0148458 0.0357543 -0.0477611 4.56403e-13 2.16107e-12 -1.77272e-12 1.97974e+06 -3.24655e+06 599543 
15 1 8 6.075e-09 1.29765e-08 1.17815e-08 3.24086e-08 0 0 0 -0.00747381 -0.0101081 0.00539908 2.6595e-12 -1.08771e-12 2.18846e-12 -983070 -104640 186799 
16 1 5 4.575e-09 2.09112e-08 1.27313e-08 3.92753e-08 0 0 0 -0.0126705 -0.000776596 0.00739761 1.25146e-12 1.08507e-12 -1.24327e-12 344734 1.36774e+06 -280431 
17 1 7 5.575e-09 1.71182e-08 4.29473e-09 2.45541e-08 0 0 0 -0.0510011 -0.0103221 -0.0166622 5.53683e-13 -2.99649e-13 -3.54973e-12 1.4605e+06 7.43981e+06 -2.0898e+06 
18 1 3 3.575e-09 2.82916e-08 9.47206e-09 3.97011e-08 0 0 0 -0.0250394 -0.0287535 -0.0647034 6.11794e-13 3.03678e-13 6.68061e-13 7.21827e+06 1.00485e+07 -5.23493e+06 
1 1 1 2.575e-09 -3.06455e-08 2.36651e-08 3.22581e-08 0 0 0 0.0273659 0.0361726 -0.0221546 1.13577e-12 1.2587e-12 9.59635e-13 3.87547e+06 1.14673e+06 1.47551e+06 
3 1 3 3.575e-09 -2.97077e-08 2.8574e-08 3.56472e-08 0 0 0 0.0316376 0.0253307 -0.000103727 8.63367e-14 -3.48967e-12 2.93688e-12 3.60094e+06 -7.23481e+06 -3.48227e+06 
4 1 2 3.075e-09 -2.594e-08 2.97886e-08 4.08859e-08 0 0 0 0.00015585 -0.00822262 0.0242627 1.57251e-12 -3.46361e-12 -8.85047e-13 379323 -2.25501e+06 -1.32798e+07 
20 1 13 1.0075e-08 1.92005e-08 -7.86239e-09 4.68026e-08 0 0 0 0.00117707 -0.0130604 -0.00056362 -4.54035e-12 1.09688e-11 2.4323e-12 205824 245689 72949.4 
7 1 8 6.075e-09 -1.23014e-08 1.56514e-08 4.82439e-08 0 0 0 0.0295598 -0.00842235 0.043987 -1.53846e-12 1.15295e-11 3.71523e-12 -1.59597e+06 -7.08987e+06 2.6561e+06 
11 1 6 5.075e-09 -2.45176e-10 9.02926e-09 5.74573e-08 0 0 0 -0.0269116 0.0246134 0.0303555 5.74348e-12 -1.22055e-11 -1.69726e-11 4.53885e+06 5.32095e+06 -4.35476e+06 
12 1 4 4.075e-09 -5.39976e-09 8.50845e-09 5.00344e-08 0 0 0 -0.00833219 0.039824 0.0371916 -2.48266e-12 3.56041e-12 5.02711e-13 -5.47749e+06 -2.41028e+06 2.02627e+06 
8 1 4 4.075e-09 1.6221e-08 1.81527e-08 5.13972e-08 0 0 0 0.00519445 0.0132769 0.0281068 6.49164e-13 1.88997e-12 1.29159e-12 -1.65646e+06 -841865 -2.09962e+06 
19 1 12 9.075e-09 6.48825e-09 6.37105e-09 4.49557e-08 0 0 0 0.000430434 -0.017323 0.00745751 -5.45514e-12 -1.11783e-11 -2.76583e-13 122027 1.74487e+06 -245779 
5 1 2 3.075e-09 -2.00303e-08 2.90362e-08 4.19382e-08 0 0 0 -0.00549434 -0.0622723 -0.012112 1.14921e-12 4.79875e-13 3.15622e-13 -1.27271e+07 1.0809e+07 -4.51504e+06 
6 1 4 4.075e-09 -1.51989e-08 2.45106e-08 4.43597e-08 0 0 0 0.0159956 -0.0408208 -0.00961661 -3.5163e-12 -2.48061e-12 1.01429e-12 -3.58149e+06 4.66794e+06 2.11417e+06 
9 1 5 4.575e-09 1.53334e-08 2.61728e-08 4.86274e-08 0 0 0 0.0115415 0.0123658 0.0183036 2.4419e-12 -2.98007e-13 2.60779e-12 -694149 1.45259e+06 -592664 
10 1 12 9.075e-09 4.56976e-09 2.21413e-08 5.5866e-08 0 0 0 -0.00739247 0.0223997 -0.00741735 2.13534e-12 -5.19901e-12 1.94401e-11 -2.36961e+06 401317 -32231.5 
13 1 10 7.575e-09 -1.50198e-09 3.50753e-08 6.43452e-08 0 0 0 -0.00739291 0.0190689 -0.00331895 2.55322e-13 6.98487e-12 -1.09868e-11 -3.10493e+06 1.73814e+06 518764 
14 1 4 4.075e-09 -1.20201e-08 3.30212e-08 6.86688e-08 0 0 0 0.00259208 0.0315447 0.0338392 1.09931e-12 -1.69257e-12 -2.868e-13 1.92004e+07 5.65978e+06 -8.64229e+06 
