ITEM: TIMESTEP
100000
ITEM: NUMBER OF ATOMS
31
ITEM: BOX BOUNDS mm mm ss
-8.47369e-08 8.47369e-08
-8.47369e-08 8.47369e-08
-2.01588e-11 8.12232e-08
ITEM: ATOMS id mol type radius x y z ix iy iz vx vy vz fx fy fz omegax omegay omegaz 
30 1 9 6.575e-09 1.19226e-08 -4.89483e-08 3.77891e-08 0 0 0 -0.0634909 -0.250302 0.298056 9.00708e-12 -5.22788e-12 -3.86161e-12 -2.00408e+06 -1.30673e+07 -8.70275e+06 
29 1 2 3.075e-09 1.20243e-08 -4.36232e-08 2.98348e-08 0 0 0 0.0363802 -0.258417 0.299629 6.47173e-13 -1.06165e-12 -7.22623e-13 6.34198e+06 6.43166e+06 -1.68717e+07 
21 1 4 4.075e-09 -9.20149e-09 -2.83627e-08 2.10785e-08 0 0 0 0.186583 -0.195457 -0.0740708 -3.52112e-12 -1.6016e-12 -1.51931e-12 -842104 -1.53691e+07 -1.03643e+07 
22 1 8 6.075e-09 -3.81255e-10 -2.72355e-08 2.57367e-08 0 0 0 0.135722 -0.169989 0.0130238 6.41505e-12 1.1723e-12 6.88674e-12 -984606 -1.07165e+07 -7.33621e+06 
27 1 8 6.075e-09 1.89599e-09 -3.60712e-08 3.35827e-08 0 0 0 0.0754189 -0.0920821 0.124273 -6.26021e-12 7.68647e-13 -8.81737e-13 -2.75094e+06 -1.03435e+07 -6.07365e+06 
28 1 1 2.575e-09 7.03904e-09 -4.1259e-08 2.91355e-08 0 0 0 0.0890135 -0.17213 0.257171 -9.64937e-13 1.98947e-12 -3.18268e-13 -5.36411e+06 -2.98711e+07 -1.66268e+07 
31 1 8 6.075e-09 6.23956e-09 -2.67342e-08 3.99476e-08 0 0 0 0.01782 -0.0426985 0.0554431 3.95682e-12 6.02961e-13 2.13047e-12 -7.45418e+06 -9.17049e+06 -1.21913e+06 
23 1 6 5.075e-09 8.93452e-09 -2.21626e-08 2.25077e-08 0 0 0 0.181998 -0.199472 0.0759374 -2.67428e-12 -3.26572e-12 1.91862e-12 -6.29264e+06 -1.29871e+07 -3.20568e+06 
24 1 11 8.575e-09 -2.92681e-09 -1.64092e-08 3.51659e-08 0 0 0 0.0562079 -0.0843869 -0.0936916 -7.11968e-12 5.36044e-12 -6.66038e-12 -7.41523e+06 -7.0466e+06 819277 
25 1 4 4.075e-09 -7.12631e-11 -4.31091e-09 3.71535e-08 0 0 0 0.0261874 -0.0613919 -0.190307 3.13531e-13 6.29927e-13 5.33127e-13 -1.64969e+07 -1.92103e+07 -196423 
2 1 7 5.575e-09 -3.22188e-08 1.18012e-08 2.43541e-08 0 0 0 0.33055 -0.312328 -0.693289 2.24839e-12 2.27997e-12 -3.07545e-12 -2.399e+07 -1.70971e+07 -8.76305e+06 
1 1 1 2.575e-09 -2.84612e-08 1.88083e-08 2.30963e-08 0 0 0 0.39342 -0.363722 -0.821734 -7.1459e-13 1.57418e-12 -1.74907e-13 -3.34268e+07 -3.43972e+07 4.09993e+06 
15 1 8 6.075e-09 1.40364e-08 9.70179e-09 2.86795e-08 0 0 0 0.138145 -0.156475 -0.177406 5.48974e-13 7.73449e-14 -1.15486e-12 -1.20379e+07 -1.46374e+07 253015 
17 1 7 5.575e-09 1.86081e-08 9.82293e-10 2.25178e-08 0 0 0 0.23011 -0.230162 -0.00374573 -2.10573e-12 -1.24046e-12 -4.05378e-13 -1.33865e+07 -1.30655e+07 1.01869e+06 
16 1 5 4.575e-09 2.1419e-08 1.18759e-08 3.58757e-08 0 0 0 0.0160336 -0.0569641 -0.0835873 -4.39401e-13 5.37412e-13 -5.70491e-13 -1.59823e+07 -1.90234e+07 -294355 
18 1 3 3.575e-09 2.86261e-08 8.80197e-09 3.78462e-08 0 0 0 -0.0288191 -0.0423871 0.100737 -7.25922e-14 5.60073e-13 4.75605e-13 -2.29005e+07 -1.57559e+07 -6.71675e+06 
3 1 3 3.575e-09 -2.77763e-08 2.45879e-08 2.47057e-08 0 0 0 0.34237 -0.313209 -0.975259 -7.65285e-13 -2.51959e-12 1.68058e-12 -2.64041e+07 -1.51952e+07 -277261 
4 1 2 3.075e-09 -2.45643e-08 2.74072e-08 2.96904e-08 0 0 0 0.223274 -0.188547 -0.971124 7.9784e-13 -2.82377e-12 7.38635e-13 -2.37575e+07 -3.15626e+07 -3.22358e+06 
5 1 2 3.075e-09 -1.88487e-08 2.71001e-08 3.16487e-08 0 0 0 0.173358 -0.145723 -0.827057 5.94315e-13 2.49045e-12 -8.28989e-13 -2.4414e+07 -1.06445e+07 4.05171e+06 
6 1 4 4.075e-09 -1.44247e-08 2.34819e-08 3.57746e-08 0 0 0 0.110867 -0.0500311 -0.675736 -3.05283e-12 8.02062e-13 1.47583e-13 -1.55063e+07 -2.0628e+07 -491018 
32 1 2 3.075e-09 2.03481e-08 -5.18458e-08 4.13197e-08 0 0 0 -0.133174 -0.326884 0.399645 -7.81932e-13 -6.7388e-13 3.90624e-12 -1.78353e+07 -7.18866e+06 -1.48754e+07 
20 1 13 1.0075e-08 1.92567e-08 -8.02353e-09 4.53188e-08 0 0 0 -0.0612841 -0.00675357 0.0148922 -1.76029e-12 2.69613e-12 -2.31169e-12 -8.9984e+06 -7.79101e+06 -1.16371e+06 
7 1 8 6.075e-09 -1.19831e-08 1.55956e-08 4.15892e-08 0 0 0 0.00962921 0.0193781 -0.545648 1.49096e-12 -3.8054e-13 -5.48708e-12 -1.03559e+07 -1.28864e+07 -929924 
11 1 6 5.075e-09 -8.68093e-10 1.11692e-08 5.28783e-08 0 0 0 -0.121819 0.110762 -0.363182 1.22793e-13 7.25977e-13 1.24677e-12 -5.61954e+06 -6.94895e+06 -2.91017e+06 
12 1 4 4.075e-09 -5.36807e-09 8.96052e-09 4.5341e-08 0 0 0 -0.0515556 0.0511999 -0.385245 1.36579e-12 2.20596e-13 8.30543e-15 -1.38902e+07 -1.34358e+07 -3.35179e+06 
19 1 12 9.075e-09 6.78409e-09 6.0089e-09 4.14297e-08 0 0 0 -0.0119871 -0.0225309 -0.223005 1.86734e-12 4.7023e-13 5.26313e-12 -9.10243e+06 -9.52927e+06 -1.58751e+06 
8 1 4 4.075e-09 1.60941e-08 1.93635e-08 4.63892e-08 0 0 0 -0.0749509 0.0888476 -0.318163 7.51647e-13 8.54805e-13 -8.77116e-13 -2.50809e+06 -6.07686e+06 805728 
13 1 10 7.575e-09 -2.06573e-09 3.78348e-08 5.60133e-08 0 0 0 -0.104125 0.114892 -0.442278 -9.7314e-13 -1.92266e-12 -4.01528e-13 -2.56135e+06 -4.7769e+06 -1.38138e+06 
14 1 4 4.075e-09 -1.28913e-08 3.67097e-08 5.98969e-08 0 0 0 -0.127609 0.153133 -0.497356 -1.66275e-13 -1.46305e-12 -5.78699e-13 -3.85627e+06 -6.72726e+06 -4.24585e+06 
9 1 5 4.575e-09 1.53314e-08 2.68492e-08 4.23685e-08 0 0 0 -0.0566991 0.078349 -0.341059 -3.50131e-14 -8.81346e-13 1.54749e-13 -2.51324e+06 -5.11242e+06 87875.8 
10 1 12 9.075e-09 4.22183e-09 2.38571e-08 4.95991e-08 0 0 0 -0.0896718 0.0945462 -0.383884 1.69138e-12 -1.16368e-12 1.82401e-12 -2.14466e+06 -3.69428e+06 -261554 
