ITEM: TIMESTEP
105000
ITEM: NUMBER OF ATOMS
31
ITEM: BOX BOUNDS mm mm ss
-8.47369e-08 8.47369e-08
-8.47369e-08 8.47369e-08
-2.01588e-11 8.04977e-08
ITEM: ATOMS id mol type radius x y z ix iy iz vx vy vz fx fy fz omegax omegay omegaz 
30 1 9 6.575e-09 1.18236e-08 -4.90058e-08 3.92276e-08 0 0 0 -0.0345132 0.0114845 0.697811 -1.67624e-12 5.15651e-13 -1.05386e-12 -7.88044e+06 -1.38288e+07 140403 
29 1 2 3.075e-09 1.21663e-08 -4.40032e-08 3.1073e-08 0 0 0 0.103826 -0.0940129 0.638371 9.1386e-13 -1.31278e-12 -1.70543e-12 -2.34234e+07 -2.3585e+07 1.672e+06 
21 1 4 4.075e-09 -8.72791e-09 -2.88973e-08 2.10198e-08 0 0 0 0.248303 -0.180187 -0.000403375 3.3303e-12 -7.1146e-13 9.01129e-13 -1.32633e+07 -1.86067e+07 1.03849e+06 
22 1 8 6.075e-09 -5.96932e-11 -2.76533e-08 2.59271e-08 0 0 0 0.172158 -0.147536 0.130044 -3.55582e-12 -1.4008e-13 -2.95382e-12 -1.58892e+07 -1.2252e+07 3.70578e+06 
27 1 8 6.075e-09 1.97249e-09 -3.63035e-08 3.40432e-08 0 0 0 0.0577052 -0.0642872 0.24692 3.53665e-12 -1.17004e-12 4.51247e-12 -1.52275e+07 -1.01796e+07 1.7899e+06 
28 1 1 2.575e-09 7.23935e-09 -4.16707e-08 2.99693e-08 0 0 0 0.131925 -0.135346 0.432059 -9.37005e-13 1.3064e-12 2.67633e-13 -3.13424e+07 -3.29266e+07 733697 
31 1 8 6.075e-09 6.19939e-09 -2.68319e-08 4.02857e-08 0 0 0 0.00309987 0.0133166 0.193246 -2.64652e-12 -9.19274e-13 -4.63341e-12 -1.42334e+07 -1.18103e+07 -784002 
23 1 6 5.075e-09 9.3637e-09 -2.26896e-08 2.28441e-08 0 0 0 0.203111 -0.182899 0.18189 8.14462e-13 2.15344e-12 -1.29753e-12 -1.85068e+07 -1.40564e+07 3.87529e+06 
24 1 11 8.575e-09 -2.81416e-09 -1.66028e-08 3.50333e-08 0 0 0 0.0580861 -0.050789 -0.0297165 -7.86083e-13 8.00395e-13 5.63159e-12 -1.13208e+07 -1.0117e+07 1.76726e+06 
25 1 4 4.075e-09 9.67859e-12 -4.45766e-09 3.6764e-08 0 0 0 0.0228339 -0.0247582 -0.153205 3.84392e-12 -1.24566e-12 -1.72679e-12 -1.75448e+07 -1.8714e+07 -1.63153e+06 
2 1 7 5.575e-09 -3.13456e-08 1.15475e-08 2.25175e-08 0 0 0 -0.0690562 -0.00432286 0.00100296 1.0691e-12 -3.02199e-12 -2.58456e-12 -5.10191e+06 917961 -2.71732e+06 
1 1 1 2.575e-09 -2.74832e-08 1.84866e-08 2.1202e-08 0 0 0 -0.0135758 -0.0569369 -0.125926 5.11555e-13 1.7899e-12 5.26576e-13 -4.78415e+07 -7.06603e+06 -1.91802e+07 
15 1 8 6.075e-09 1.43219e-08 9.38275e-09 2.8332e-08 0 0 0 0.13116 -0.114423 -0.12759 1.54397e-12 -5.05913e-13 1.4922e-12 -7.10814e+06 -9.85354e+06 -5.47398e+06 
17 1 7 5.575e-09 1.90369e-08 5.0221e-10 2.25179e-08 0 0 0 0.139393 -0.186028 -0.0137896 -2.60637e-13 8.46618e-13 -4.5007e-13 -7.90903e+06 -9.59488e+06 -6.085e+06 
16 1 5 4.575e-09 2.14803e-08 1.17239e-08 3.57002e-08 0 0 0 0.0647648 -0.104604 -0.0674088 -3.64054e-13 7.86087e-13 1.58774e-12 -9.47563e+06 -1.21894e+07 -7.69477e+06 
18 1 3 3.575e-09 2.85825e-08 8.69323e-09 3.80767e-08 0 0 0 0.00563464 -0.128991 0.0778656 3.55644e-13 -3.16528e-14 -2.62836e-13 -1.39409e+07 -1.8987e+07 -6.88065e+06 
3 1 3 3.575e-09 -2.68098e-08 2.43186e-08 2.26143e-08 0 0 0 0.0810189 -0.010752 -0.353901 -4.04646e-13 1.75378e-12 1.86055e-12 -3.18605e+07 -1.04008e+07 -1.68694e+07 
4 1 2 3.075e-09 -2.38163e-08 2.72765e-08 2.76543e-08 0 0 0 0.0443267 0.0848466 -0.383822 -6.79983e-13 -6.7301e-13 1.81356e-12 -2.8652e+07 -2.85745e+07 -2.25787e+07 
5 1 2 3.075e-09 -1.82235e-08 2.69663e-08 2.99394e-08 0 0 0 0.0515128 0.0373548 -0.391644 -1.33074e-12 -8.70533e-13 2.68592e-12 -2.87653e+07 3.55897e+07 -1.33877e+07 
6 1 4 4.075e-09 -1.40556e-08 2.3416e-08 3.43789e-08 0 0 0 0.0758179 0.0426799 -0.389909 5.17908e-12 -2.30942e-12 -9.26279e-13 -1.5533e+07 2.91609e+06 -2.0301e+07 
32 1 2 3.075e-09 2.01451e-08 -5.17761e-08 4.30912e-08 0 0 0 -0.0948705 0.0669459 0.867719 -5.52975e-13 -5.48261e-13 4.90911e-13 -1.39039e+07 -2.38843e+07 6.44095e+06 
20 1 13 1.0075e-08 1.91489e-08 -8.05577e-09 4.52922e-08 0 0 0 -0.0729575 -0.0475467 -0.0274947 -5.99434e-12 6.74885e-12 -1.37503e-12 -4.76158e+06 -6.24399e+06 -4.61343e+06 
7 1 8 6.075e-09 -1.18916e-08 1.56147e-08 4.0414e-08 0 0 0 0.033291 0.0500245 -0.332535 2.05732e-12 -3.47931e-12 4.13871e-12 -9.2332e+06 2.20071e+07 -1.25566e+07 
11 1 6 5.075e-09 -1.26321e-09 1.13329e-08 5.21879e-08 0 0 0 -0.0975107 0.0638419 -0.221969 -4.91786e-12 3.36076e-12 1.08779e-12 -1.01547e+07 -1.53618e+07 211480 
12 1 4 4.075e-09 -5.46394e-09 9.00245e-09 4.45157e-08 0 0 0 0.0131628 0.0401334 -0.290179 8.64332e-13 2.51636e-12 5.66688e-13 -2.61213e+06 -1.15255e+07 -3.05625e+06 
19 1 12 9.075e-09 6.77727e-09 5.94333e-09 4.0983e-08 0 0 0 0.0133208 -0.0114176 -0.170104 1.55795e-12 -7.15473e-12 -1.08456e-12 -4.36251e+06 -7.22271e+06 -2.3674e+06 
8 1 4 4.075e-09 1.5888e-08 1.9501e-08 4.6056e-08 0 0 0 -0.0537472 0.0386804 -0.139763 1.38539e-12 -1.05841e-14 -1.99729e-12 -4.03424e+06 -1.6815e+07 5.01532e+06 
13 1 10 7.575e-09 -2.51032e-09 3.80086e-08 5.50815e-08 0 0 0 -0.136969 0.073559 -0.396256 2.49893e-12 3.84509e-12 1.18906e-11 -6.03702e+06 -7.91546e+06 1.14198e+06 
14 1 4 4.075e-09 -1.34494e-08 3.69295e-08 5.86471e-08 0 0 0 -0.175377 0.0833839 -0.510162 -2.60353e-13 -6.81619e-13 3.83826e-13 -7.68939e+06 -1.59124e+07 792734 
9 1 5 4.575e-09 1.5205e-08 2.69448e-08 4.19443e-08 0 0 0 -0.0165423 0.0185166 -0.183187 2.92203e-13 -2.05929e-12 -7.82009e-14 -4.32231e+06 -1.54103e+07 3.31117e+06 
10 1 12 9.075e-09 3.9252e-09 2.39841e-08 4.89214e-08 0 0 0 -0.0789568 0.0477394 -0.272233 -3.31367e-12 1.1375e-12 -1.34567e-11 -4.00549e+06 -9.40355e+06 -1.23708e+06 
