ITEM: TIMESTEP
110000
ITEM: NUMBER OF ATOMS
31
ITEM: BOX BOUNDS mm mm ss
-8.47369e-08 8.47369e-08
-8.47369e-08 8.47369e-08
-2.01588e-11 7.95837e-08
ITEM: ATOMS id mol type radius x y z ix iy iz vx vy vz fx fy fz omegax omegay omegaz 
30 1 9 6.575e-09 1.17522e-08 -4.923e-08 4.02131e-08 0 0 0 0.12591 -0.144944 0.117362 -3.83367e-12 3.53126e-12 -7.3741e-13 1.72518e+06 1.46359e+07 -665443 
29 1 2 3.075e-09 1.22088e-08 -4.43497e-08 3.19903e-08 0 0 0 -0.0348722 -0.131637 0.116262 1.04073e-12 -1.28402e-12 -1.73847e-12 1.26381e+06 3.24521e+07 -3.18188e+06 
21 1 4 4.075e-09 -8.55047e-09 -2.93654e-08 2.14397e-08 0 0 0 -0.109588 -0.198524 0.361661 -3.48133e-13 -5.40765e-12 1.55011e-12 -1.25868e+07 9.18955e+06 -3.1048e+06 
22 1 8 6.075e-09 7.43639e-11 -2.80054e-08 2.63924e-08 0 0 0 -0.0678781 -0.145014 0.257766 -3.20749e-12 -4.62366e-12 -3.37783e-12 -1.01013e+07 9.03925e+06 142333 
27 1 8 6.075e-09 2.05684e-09 -3.6512e-08 3.46715e-08 0 0 0 0.00292681 -0.0801995 0.313625 1.16956e-11 2.64729e-12 1.14078e-11 -6.90624e+06 7.62154e+06 -301774 
28 1 1 2.575e-09 7.32483e-09 -4.19934e-08 3.07538e-08 0 0 0 -0.0634157 -0.111872 0.271993 -7.87175e-13 1.80085e-12 -2.75359e-14 -2.04133e+06 3.11005e+07 -5.88069e+06 
23 1 6 5.075e-09 9.51899e-09 -2.3108e-08 2.32686e-08 0 0 0 -0.0825818 -0.190827 0.131288 9.41228e-14 1.51511e-13 -5.28513e-15 -6.56771e+06 7.86941e+06 -4.66725e+06 
24 1 11 8.575e-09 -2.71182e-09 -1.67987e-08 3.52967e-08 0 0 0 0.00468228 -0.077511 0.199529 -1.58807e-12 4.77038e-13 -5.5865e-12 -6.46754e+06 6.90321e+06 320112 
25 1 4 4.075e-09 8.73747e-11 -4.61467e-09 3.6776e-08 0 0 0 0.0200855 -0.0605881 0.0708147 -2.07202e-13 4.65949e-13 3.23654e-13 -1.43804e+07 9.39956e+06 -117985 
2 1 7 5.575e-09 -3.1751e-08 1.08657e-08 2.25174e-08 0 0 0 -0.032752 -0.644683 -0.00161561 1.83973e-12 -3.12805e-12 -2.44087e-12 -1.87851e+07 5.73018e+06 -1.17708e+06 
1 1 1 2.575e-09 -2.78001e-08 1.76912e-08 2.09045e-08 0 0 0 -0.0409962 -0.679739 -0.186895 4.1069e-13 1.56029e-12 1.0208e-12 -3.95131e+07 1.57276e+06 3.09471e+06 
15 1 8 6.075e-09 1.43852e-08 9.08681e-09 2.80752e-08 0 0 0 0.0269977 -0.157406 -0.110079 4.77477e-13 2.60918e-13 -2.02876e-13 -1.16225e+07 2.86834e+06 -2.96269e+06 
17 1 7 5.575e-09 1.91467e-08 6.81089e-11 2.25175e-08 0 0 0 -0.00384382 -0.237736 -0.0059863 -2.61875e-13 1.40435e-14 -1.98626e-13 -1.29691e+07 -157241 -2.03189e+06 
16 1 5 4.575e-09 2.14973e-08 1.16494e-08 3.54145e-08 0 0 0 0.0427276 -0.0680091 -0.157013 -2.01949e-12 9.02764e-13 7.7603e-13 -1.61696e+07 907498 -85453.8 
18 1 3 3.575e-09 2.85816e-08 8.71625e-09 3.7961e-08 0 0 0 0.0454767 -0.0377557 -0.130984 -7.82881e-13 -5.80971e-13 -1.1217e-12 -2.7656e+07 1.00225e+07 -7.12399e+06 
3 1 3 3.575e-09 -2.70077e-08 2.3572e-08 2.20222e-08 0 0 0 -0.0204936 -0.636584 -0.414765 -5.62547e-13 8.11083e-13 1.59927e-12 -3.57134e+07 1.86538e+07 -2.65686e+06 
4 1 2 3.075e-09 -2.39015e-08 2.67112e-08 2.6881e-08 0 0 0 -0.039378 -0.475782 -0.504169 -6.57224e-13 -1.10879e-12 1.63348e-12 -3.49456e+07 -3.41023e+07 -7.40195e+06 
5 1 2 3.075e-09 -1.82768e-08 2.64553e-08 2.90932e-08 0 0 0 -0.0464881 -0.411597 -0.475684 -8.26677e-13 1.92427e-13 9.92055e-13 -4.21723e+07 3.03294e+07 622793 
6 1 4 4.075e-09 -1.40743e-08 2.30763e-08 3.36328e-08 0 0 0 0.0172555 -0.247229 -0.406251 3.34066e-12 5.87186e-14 -2.70768e-12 -3.01293e+07 -4.59152e+06 810306 
32 1 2 3.075e-09 1.99991e-08 -5.19949e-08 4.42372e-08 0 0 0 0.20126 -0.167152 -0.0525638 -1.278e-13 4.85002e-13 -3.31194e-13 2.91388e+06 3.02186e+07 -3.6593e+06 
31 1 8 6.075e-09 6.27734e-09 -2.6938e-08 4.07593e-08 0 0 0 0.0452378 -0.0346449 0.206465 -2.80196e-12 2.58131e-12 -4.31336e-12 -7.68951e+06 7.66612e+06 29651.3 
20 1 13 1.0075e-08 1.92137e-08 -8.01424e-09 4.53226e-08 0 0 0 0.0343204 -0.00117104 0.0284376 4.18455e-12 -6.57302e-12 2.83136e-12 -4.48033e+06 -1.53732e+06 -676143 
7 1 8 6.075e-09 -1.18738e-08 1.54721e-08 3.99017e-08 0 0 0 0.0188738 -0.0869908 -0.210083 -3.18577e-12 1.17877e-12 1.92687e-12 -2.09607e+07 2.95983e+06 1.68537e+06 
11 1 6 5.075e-09 -1.24532e-09 1.16694e-08 5.17995e-08 0 0 0 0.0625552 0.219226 -0.170116 -3.14243e-13 -5.01792e-13 -6.89051e-13 -2.19325e+07 1.64908e+06 4.31768e+06 
12 1 4 4.075e-09 -5.42794e-09 9.01883e-09 4.4222e-08 0 0 0 0.0495028 0.0236521 -0.0929022 1.47744e-13 -2.27824e-13 -6.50641e-14 -2.51137e+07 3.23937e+06 1.72694e+06 
19 1 12 9.075e-09 6.82185e-09 5.89252e-09 4.07793e-08 0 0 0 0.0467201 -0.019248 -0.0646436 -3.75875e-13 2.63665e-12 2.65209e-12 -8.49551e+06 1.02191e+06 -998238 
8 1 4 4.075e-09 1.59283e-08 1.96826e-08 4.54521e-08 0 0 0 0.0118122 0.170638 -0.37036 1.50759e-12 1.95938e-12 -2.08785e-13 -1.88872e+07 5.30532e+06 3.03282e+06 
13 1 10 7.575e-09 -2.51245e-09 3.84099e-08 5.38602e-08 0 0 0 0.0105262 0.242676 -0.566023 -2.7808e-12 4.40482e-14 3.04919e-12 -1.46811e+07 2.61589e+06 1.61999e+06 
14 1 4 4.075e-09 -1.3472e-08 3.74519e-08 5.73973e-08 0 0 0 0.0276843 0.314298 -0.501216 -1.13181e-12 3.79206e-12 -2.02011e-13 -3.05515e+07 -819487 4.83633e+06 
9 1 5 4.575e-09 1.52232e-08 2.69723e-08 4.10766e-08 0 0 0 -0.0332718 0.089431 -0.499074 5.90928e-13 1.01605e-12 1.81625e-12 -1.79528e+07 8.53749e+06 682832 
10 1 12 9.075e-09 3.94099e-09 2.42113e-08 4.81328e-08 0 0 0 0.0147349 0.177396 -0.386811 5.15523e-13 -2.17332e-12 -2.81432e-12 -1.34178e+07 4.4711e+06 2.16678e+06 
