ITEM: TIMESTEP
115000
ITEM: NUMBER OF ATOMS
31
ITEM: BOX BOUNDS mm mm ss
-8.47369e-08 8.47369e-08
-8.47369e-08 8.47369e-08
-2.01588e-11 7.72717e-08
ITEM: ATOMS id mol type radius x y z ix iy iz vx vy vz fx fy fz omegax omegay omegaz 
21 1 4 4.075e-09 -8.57466e-09 -2.98143e-08 2.21241e-08 0 0 0 0.151631 -0.300884 0.238701 -3.29739e-12 8.79174e-13 -3.01833e-12 -9.02518e+06 -9.52065e+06 -1.18828e+07 
23 1 6 5.075e-09 9.51439e-09 -2.35228e-08 2.36748e-08 0 0 0 0.133469 -0.202592 0.234099 -1.33584e-12 -1.55574e-12 2.01686e-12 -1.52093e+07 -4.43248e+06 1.39896e+06 
17 1 7 5.575e-09 1.91655e-08 -4.27857e-10 2.2517e-08 0 0 0 0.0727756 -0.173682 -0.00139989 -7.59095e-13 -8.60967e-13 -4.09858e-13 -1.25199e+07 -3.88534e+06 2.06179e+06 
2 1 7 5.575e-09 -3.14487e-08 9.07093e-09 2.25175e-08 0 0 0 -0.0116968 -0.494458 -0.00105975 1.48255e-12 -9.23362e-13 -2.65563e-12 -1.75098e+07 746731 -459463 
1 1 1 2.575e-09 -2.76725e-08 1.58825e-08 2.04822e-08 0 0 0 -0.0273906 -0.531189 -0.167935 -4.20207e-13 1.95419e-12 1.42359e-12 -3.66922e+07 -653204 8.33842e+06 
3 1 3 3.575e-09 -2.70589e-08 2.18561e-08 2.1115e-08 0 0 0 -0.0292446 -0.507372 -0.37091 -6.26469e-13 7.99729e-13 7.48563e-13 -3.09136e+07 1.92039e+07 -2.12434e+06 
30 1 9 6.575e-09 1.19189e-08 -4.92414e-08 4.11535e-08 0 0 0 -0.00963407 -0.0329114 0.658185 -1.73791e-12 7.30812e-13 3.17049e-13 -4.62549e+06 -8.8926e+06 -693411 
29 1 2 3.075e-09 1.22711e-08 -4.45564e-08 3.28128e-08 0 0 0 0.108094 -0.115595 0.617651 8.86328e-13 -1.56815e-12 -1.6601e-12 -2.02641e+07 -2.43422e+07 -1.22257e+06 
32 1 2 3.075e-09 2.02271e-08 -5.18905e-08 4.5129e-08 0 0 0 -0.0521404 -0.00836586 0.762969 -3.85384e-13 -3.08779e-13 4.95924e-13 -3.7914e+06 -1.60768e+07 4.24115e+06 
22 1 8 6.075e-09 9.03387e-11 -2.83443e-08 2.6974e-08 0 0 0 0.127249 -0.187047 0.253607 1.14504e-11 1.94965e-12 1.07932e-11 -2.77793e+06 -7.39453e+06 -6.35027e+06 
27 1 8 6.075e-09 2.11987e-09 -3.66971e-08 3.53976e-08 0 0 0 0.116396 -0.073041 0.370789 -8.81594e-12 -1.14551e-12 -1.21508e-11 -4.9259e+06 -7.0631e+06 -3.84746e+06 
28 1 1 2.575e-09 7.3559e-09 -4.22706e-08 3.15681e-08 0 0 0 0.135434 -0.127913 0.479212 -8.01646e-13 1.34853e-12 -8.77666e-13 -2.19406e+07 -1.26225e+07 -2.42217e+06 
31 1 8 6.075e-09 6.37099e-09 -2.70131e-08 4.1286e-08 0 0 0 0.0593598 -0.00617951 0.262485 8.18903e-12 -7.8996e-13 9.89213e-12 -1.01038e+07 -5.22764e+06 1.22643e+06 
24 1 11 8.575e-09 -2.6592e-09 -1.69829e-08 3.56923e-08 0 0 0 0.0642768 -0.087742 0.114575 -2.38857e-12 1.13793e-12 -3.45307e-12 -1.00526e+07 -4.12535e+06 1.9574e+06 
25 1 4 4.075e-09 1.28886e-10 -4.76361e-09 3.68717e-08 0 0 0 0.0363739 -0.0653661 -0.0343693 6.11169e-13 1.53713e-13 1.05116e-14 -1.92373e+07 -7.04273e+06 3.52228e+06 
20 1 13 1.0075e-08 1.9274e-08 -7.9449e-09 4.53791e-08 0 0 0 0.00084993 0.0406921 0.0114691 -1.12145e-12 -6.56522e-13 1.3602e-12 -7.471e+06 -1.94705e+06 839158 
7 1 8 6.075e-09 -1.18924e-08 1.52523e-08 3.93442e-08 0 0 0 -0.0145858 -0.0692024 -0.296811 -2.49323e-12 6.57365e-13 1.3362e-12 -1.16306e+07 -30712.2 47824.7 
11 1 6 5.075e-09 -1.20503e-09 1.21148e-08 5.13633e-08 0 0 0 -0.0374648 0.138332 -0.239492 -1.8373e-12 -2.28055e-13 -9.59692e-13 -1.53228e+07 -3.97879e+06 2.70926e+06 
12 1 4 4.075e-09 -5.39702e-09 9.05019e-09 4.39488e-08 0 0 0 -0.010729 0.00582004 -0.20161 6.50818e-13 -5.84065e-13 -7.23179e-13 -1.78073e+07 -3.04948e+06 1.05063e+06 
15 1 8 6.075e-09 1.43964e-08 8.75294e-09 2.77958e-08 0 0 0 0.0407487 -0.11837 -0.128787 1.76007e-12 -7.64293e-13 8.21399e-14 -1.13128e+07 -3.23503e+06 1.18094e+06 
19 1 12 9.075e-09 6.85649e-09 5.85419e-09 4.05844e-08 0 0 0 0.00354948 -0.00986128 -0.127355 4.41225e-12 -2.5122e-12 4.34168e-13 -7.94188e+06 -3.0748e+06 1.16596e+06 
8 1 4 4.075e-09 1.59422e-08 1.99477e-08 4.46911e-08 0 0 0 -0.0318945 0.0895665 -0.283001 2.18786e-13 1.00296e-12 -7.95383e-13 -9.51067e+06 -2.87762e+06 851699 
16 1 5 4.575e-09 2.15193e-08 1.15881e-08 3.50235e-08 0 0 0 0.000265793 -0.00144158 -0.13272 -2.22291e-12 2.15538e-12 1.52363e-12 -1.56975e+07 -6.16996e+06 4.91031e+06 
18 1 3 3.575e-09 2.86209e-08 8.79601e-09 3.76782e-08 0 0 0 -0.000989065 0.075232 -0.0462108 -8.69004e-13 -6.58114e-13 -1.19437e-12 -2.48185e+07 -1.67159e+06 1.13676e+06 
4 1 2 3.075e-09 -2.40417e-08 2.54338e-08 2.57203e-08 0 0 0 -0.0380984 -0.364084 -0.472161 -1.05595e-12 -1.02908e-12 1.20964e-12 -2.98916e+07 -2.83144e+07 469131 
5 1 2 3.075e-09 -1.84173e-08 2.54988e-08 2.7947e-08 0 0 0 -0.0397329 -0.294688 -0.461413 -1.24866e-12 1.30294e-12 1.98993e-12 -3.17693e+07 2.40663e+07 -512649 
6 1 4 4.075e-09 -1.4163e-08 2.25223e-08 3.27143e-08 0 0 0 0.00859608 -0.168405 -0.416603 3.08485e-12 -5.17168e-13 -3.62136e-12 -2.09941e+07 -6.05206e+06 -205388 
9 1 5 4.575e-09 1.51956e-08 2.70687e-08 4.00526e-08 0 0 0 -0.0269312 0.0455347 -0.351228 -3.62909e-13 -4.55355e-13 3.28706e-13 -9.48628e+06 -99323.6 -1.03997e+06 
10 1 12 9.075e-09 3.94969e-09 2.45306e-08 4.72501e-08 0 0 0 -0.0391646 0.104263 -0.347682 -1.11897e-12 1.29782e-12 1.77226e-12 -7.10604e+06 -2.32957e+06 801482 
13 1 10 7.575e-09 -2.51439e-09 3.88881e-08 5.25539e-08 0 0 0 -0.0576682 0.145771 -0.481482 2.57799e-14 4.51012e-13 -5.58302e-13 -8.72611e+06 -3.28304e+06 193795 
14 1 4 4.075e-09 -1.34675e-08 3.80785e-08 5.61478e-08 0 0 0 -0.0685935 0.18683 -0.505753 3.11563e-13 -5.93336e-13 -3.42064e-13 -1.84855e+07 -3.65231e+06 519325 
