ITEM: TIMESTEP
120000
ITEM: NUMBER OF ATOMS
31
ITEM: BOX BOUNDS mm mm ss
-8.47369e-08 8.47369e-08
-8.47369e-08 8.47369e-08
-2.01588e-11 7.63967e-08
ITEM: ATOMS id mol type radius x y z ix iy iz vx vy vz fx fy fz omegax omegay omegaz 
21 1 4 4.075e-09 -8.20075e-09 -3.05457e-08 2.29181e-08 0 0 0 0.0545756 -0.285284 0.459956 -2.96108e-12 -2.60628e-13 -2.90197e-12 -9.00241e+06 -4.56144e+06 -1.18316e+07 
23 1 6 5.075e-09 9.84558e-09 -2.41151e-08 2.44389e-08 0 0 0 0.0439972 -0.189175 0.330348 -1.99626e-12 -1.4203e-12 2.85347e-12 -1.60831e+07 4.63477e+06 1.83533e+06 
17 1 7 5.575e-09 1.93148e-08 -9.73773e-10 2.25171e-08 0 0 0 -0.0423311 -0.179128 0.000177177 -2.5101e-13 -4.80508e-13 -2.08733e-14 -1.20763e+07 4.79986e+06 126780 
2 1 7 5.575e-09 -3.16822e-08 8.35409e-09 2.25177e-08 0 0 0 -0.0748328 -0.286099 -0.00126464 8.85804e-13 -2.75856e-12 -1.17044e-12 -2.15023e+06 2.6109e+06 -47086.4 
1 1 1 2.575e-09 -2.78815e-08 1.50594e-08 2.01954e-08 0 0 0 -0.0997974 -0.26589 -0.00962486 6.00825e-13 1.32989e-12 -9.04246e-13 2.79986e+06 7.24754e+06 8.56541e+06 
3 1 3 3.575e-09 -2.72253e-08 2.10533e-08 2.05167e-08 0 0 0 -0.122505 -0.256062 -0.00735428 6.87403e-13 2.6262e-13 2.79097e-12 -464530 1.04525e+07 3.01989e+06 
4 1 2 3.075e-09 -2.41319e-08 2.48226e-08 2.49137e-08 0 0 0 -0.124637 -0.230701 -0.0203102 -1.11588e-12 -1.73817e-13 2.37433e-12 -2.08001e+06 -3.02977e+06 5.60362e+06 
30 1 9 6.575e-09 1.20374e-08 -4.91446e-08 4.30995e-08 0 0 0 0.117294 0.14944 0.775651 -7.52838e-13 5.36896e-13 -1.17154e-12 -1.73523e+07 -1.28428e+06 2.09143e+06 
29 1 2 3.075e-09 1.25311e-08 -4.48312e-08 3.45678e-08 0 0 0 0.109803 -0.0443758 0.67568 7.047e-13 -1.30309e-12 -1.91943e-12 -3.40792e+07 -818369 4.51685e+06 
32 1 2 3.075e-09 2.02763e-08 -5.16231e-08 4.73217e-08 0 0 0 0.115003 0.269676 0.850542 -2.3352e-13 -2.89809e-13 3.0252e-13 -4.0404e+07 -1.8648e+06 1.5439e+06 
28 1 1 2.575e-09 7.65536e-09 -4.26441e-08 3.3026e-08 0 0 0 0.0972257 -0.114151 0.602841 -8.69171e-13 1.32715e-12 -9.60922e-13 -3.83278e+07 3.56197e+06 3.81595e+06 
22 1 8 6.075e-09 3.9862e-10 -2.88422e-08 2.78083e-08 0 0 0 0.0626347 -0.170665 0.418508 1.09285e-11 7.01877e-12 1.1849e-11 -1.03868e+06 -1.62457e+06 -7.44543e+06 
27 1 8 6.075e-09 2.35957e-09 -3.69101e-08 3.65218e-08 0 0 0 0.102793 -0.0542385 0.517467 -1.05112e-11 -4.15052e-12 -1.60357e-11 -4.89881e+06 -1.30246e+06 -4.25847e+06 
31 1 8 6.075e-09 6.53999e-09 -2.70308e-08 4.21281e-08 0 0 0 0.0886552 0.00506841 0.383924 7.47964e-12 -1.57735e-12 1.34247e-11 -1.01939e+07 1.32564e+06 1.15434e+06 
24 1 11 8.575e-09 -2.472e-09 -1.72188e-08 3.61349e-08 0 0 0 0.0586965 -0.0780357 0.296585 -1.79692e-12 2.21728e-12 -2.60563e-12 -9.61497e+06 2.61324e+06 1.64195e+06 
25 1 4 4.075e-09 2.41762e-10 -4.9485e-09 3.68779e-08 0 0 0 0.0356689 -0.0612527 0.121381 7.66595e-13 4.59267e-13 -2.12624e-13 -1.82342e+07 8.01841e+06 3.27144e+06 
20 1 13 1.0075e-08 1.93418e-08 -7.84735e-09 4.54042e-08 0 0 0 0.070289 0.0231439 0.00598143 5.09482e-12 -6.45547e-12 1.82631e-12 -4.10892e+06 2.40611e+06 1.15651e+06 
7 1 8 6.075e-09 -1.18731e-08 1.51187e-08 3.8727e-08 0 0 0 0.0218562 -0.0928246 -0.0742973 -1.89177e-12 6.90344e-13 -1.43133e-12 -7.8624e+06 3.0323e+06 1.14422e+06 
12 1 4 4.075e-09 -5.36079e-09 9.07834e-09 4.35189e-08 0 0 0 0.0493591 -0.0124525 -0.0145613 6.04705e-13 9.50231e-13 -2.3435e-13 -2.18929e+07 3.46932e+06 4.82352e+06 
15 1 8 6.075e-09 1.44825e-08 8.37377e-09 2.74334e-08 0 0 0 -0.0185774 -0.123248 -0.083622 1.32113e-12 -4.85633e-13 4.10421e-13 -1.09616e+07 5.09864e+06 171344 
19 1 12 9.075e-09 6.90671e-09 5.81413e-09 4.0273e-08 0 0 0 0.0411748 -0.0167201 -0.0274638 1.05223e-12 3.76163e-12 1.15312e-12 -6.93932e+06 4.23711e+06 712334 
8 1 4 4.075e-09 1.59435e-08 2.02233e-08 4.39564e-08 0 0 0 0.0463464 0.0871616 -0.240576 4.50412e-13 7.26849e-13 -3.9104e-13 -1.84125e+07 -282132 4.35503e+06 
16 1 5 4.575e-09 2.15522e-08 1.15272e-08 3.45811e-08 0 0 0 0.0138559 -0.0246759 -0.158588 -1.15947e-12 1.08827e-12 1.01493e-12 -1.33784e+07 5.62702e+06 3.82828e+06 
18 1 3 3.575e-09 2.86473e-08 8.91713e-09 3.74311e-08 0 0 0 0.0405268 0.0512998 -0.155021 -8.13826e-14 -2.48124e-13 -7.4512e-13 -2.04632e+07 5.86071e+06 3.76839e+06 
5 1 2 3.075e-09 -1.84754e-08 2.49721e-08 2.70532e-08 0 0 0 -0.0985932 -0.197773 -0.0852128 -8.46725e-13 -3.01973e-13 4.31642e-13 -2.34648e+06 2.53367e+07 3.56675e+06 
6 1 4 4.075e-09 -1.41758e-08 2.21905e-08 3.18968e-08 0 0 0 -0.0165709 -0.157296 -0.13094 1.20848e-12 -3.91831e-13 -1.4856e-12 -9.22577e+06 5.88786e+06 1.65535e+06 
9 1 5 4.575e-09 1.51529e-08 2.72079e-08 3.91217e-08 0 0 0 0.0166456 -0.00187626 -0.364608 -4.11234e-13 -1.14536e-12 6.41763e-13 -1.75471e+07 3.97165e+06 1.45806e+06 
10 1 12 9.075e-09 3.91312e-09 2.47851e-08 4.63692e-08 0 0 0 0.0361027 0.0916145 -0.302923 -3.99091e-12 -4.64247e-13 -4.76595e-13 -1.3632e+07 1.11403e+06 1.73391e+06 
11 1 6 5.075e-09 -1.18786e-09 1.24587e-08 5.08057e-08 0 0 0 0.0676306 0.149478 -0.101163 -2.98513e-12 1.2346e-12 1.13006e-12 -1.93902e+07 3.82886e+06 926816 
13 1 10 7.575e-09 -2.64202e-09 3.92244e-08 5.13275e-08 0 0 0 0.0118552 0.153854 -0.511331 1.76441e-12 1.69191e-12 1.50882e-12 -1.56117e+07 551331 2.32175e+06 
14 1 4 4.075e-09 -1.3605e-08 3.84471e-08 5.48981e-08 0 0 0 0.0140701 0.178406 -0.498913 2.48707e-13 -1.00653e-13 -3.70414e-16 -7.95465e+06 28425.8 388823 
