ITEM: TIMESTEP
125000
ITEM: NUMBER OF ATOMS
31
ITEM: BOX BOUNDS mm mm ss
-8.47369e-08 8.47369e-08
-8.47369e-08 8.47369e-08
-2.01588e-11 7.55134e-08
ITEM: ATOMS id mol type radius x y z ix iy iz vx vy vz fx fy fz omegax omegay omegaz 
21 1 4 4.075e-09 -8.29614e-09 -3.11934e-08 2.4468e-08 0 0 0 -0.0676518 -0.230761 0.63904 2.05052e-13 3.57296e-13 -1.06789e-12 -1.90692e+07 1.55172e+07 -1.83562e+06 
23 1 6 5.075e-09 9.77959e-09 -2.46886e-08 2.52939e-08 0 0 0 -0.0392875 -0.245416 0.325293 -4.39895e-13 5.35521e-13 5.3617e-13 -1.6274e+07 1.22114e+07 -2.34688e+06 
17 1 7 5.575e-09 1.91541e-08 -1.58268e-09 2.2518e-08 0 0 0 -0.0353889 -0.264233 0.00214177 8.0541e-14 -1.92859e-13 -6.74383e-13 -1.86533e+07 7.64959e+06 1.42001e+06 
2 1 7 5.575e-09 -3.19764e-08 7.48222e-09 2.2824e-08 0 0 0 -0.295971 -0.53227 0.507567 1.29248e-12 -8.55604e-13 1.01711e-13 -2.20635e+07 1.26144e+07 -5.7628e+06 
1 1 1 2.575e-09 -2.82431e-08 1.41665e-08 2.03375e-08 0 0 0 -0.283278 -0.635842 0.246538 7.41822e-13 1.00376e-12 -3.93264e-13 -4.26395e+07 2.75914e+07 -1.34695e+07 
3 1 3 3.575e-09 -2.76016e-08 2.0168e-08 2.05155e-08 0 0 0 -0.215231 -0.635638 0.00606817 -1.71428e-12 -1.10965e-12 1.5957e-12 -3.35555e+07 9.81121e+06 -7.71518e+06 
4 1 2 3.075e-09 -2.44069e-08 2.40596e-08 2.47297e-08 0 0 0 -0.10426 -0.50503 -0.196296 -7.41717e-13 -1.28592e-12 5.55353e-13 -3.90669e+07 2.77736e+07 -7.83116e+06 
30 1 9 6.575e-09 1.25155e-08 -4.91112e-08 4.45971e-08 0 0 0 0.182063 0.0546784 0.5968 -1.631e-12 1.1507e-12 5.11725e-13 -1.25731e+07 1.1023e+07 621938 
29 1 2 3.075e-09 1.27191e-08 -4.50487e-08 3.59314e-08 0 0 0 0.0493512 -0.086651 0.527585 1.02639e-12 -1.60886e-12 -1.49456e-12 -2.39289e+07 2.39818e+07 -258358 
32 1 2 3.075e-09 2.08813e-08 -5.14581e-08 4.86413e-08 0 0 0 0.245653 0.120684 0.503471 -2.00451e-13 5.71821e-13 6.03493e-13 -2.27289e+07 2.49596e+07 -786959 
28 1 1 2.575e-09 7.76133e-09 -4.2941e-08 3.4549e-08 0 0 0 0.0146622 -0.120313 0.601769 -8.64178e-13 1.43336e-12 -2.7272e-13 -2.78443e+07 2.7641e+07 -772002 
22 1 8 6.075e-09 4.21598e-10 -2.92874e-08 2.90652e-08 0 0 0 -0.00664434 -0.170441 0.498736 -6.16547e-13 1.43713e-12 -1.28646e-12 -1.38796e+07 1.03059e+07 -1.6004e+06 
27 1 8 6.075e-09 2.57901e-09 -3.70712e-08 3.79889e-08 0 0 0 0.0728121 -0.0564832 0.579743 3.6244e-13 -4.52946e-13 1.30503e-12 -1.23504e+07 9.59334e+06 -1.0385e+06 
31 1 8 6.075e-09 6.86029e-09 -2.70157e-08 4.319e-08 0 0 0 0.12781 0.00630192 0.410572 -2.37508e-13 -1.41587e-13 5.43441e-13 -1.31978e+07 1.01075e+07 534733 
24 1 11 8.575e-09 -2.3086e-09 -1.74188e-08 3.70888e-08 0 0 0 0.0690707 -0.0715981 0.379411 3.16223e-12 5.03819e-13 1.1274e-12 -1.05024e+07 7.62459e+06 314161 
25 1 4 4.075e-09 3.56197e-10 -5.11747e-09 3.73164e-08 0 0 0 0.063664 -0.0659475 0.162524 -1.36566e-12 8.60034e-13 -1.1829e-12 -2.34829e+07 1.4621e+07 1.53227e+06 
20 1 13 1.0075e-08 1.95801e-08 -7.71087e-09 4.54974e-08 0 0 0 0.108309 0.0476928 0.0340911 1.46974e-11 -1.21613e-11 4.99146e-12 -8.53816e+06 2.50226e+06 1.05601e+06 
7 1 8 6.075e-09 -1.18089e-08 1.49234e-08 3.85751e-08 0 0 0 0.0468966 -0.11301 -0.127161 4.77561e-12 -2.71693e-12 -2.75565e-12 -2.02549e+07 3.96339e+06 4.76684e+06 
12 1 4 4.075e-09 -5.18503e-09 9.12446e-09 4.35102e-08 0 0 0 0.0923265 0.0342975 -0.0219778 -3.77417e-13 2.66331e-12 3.57871e-12 -3.39554e+07 5.76954e+06 7.04234e+06 
15 1 8 6.075e-09 1.43908e-08 7.94744e-09 2.71425e-08 0 0 0 -0.00901797 -0.18725 -0.130093 2.03003e-12 2.79919e-13 -9.42869e-13 -1.67602e+07 8.03152e+06 446228 
19 1 12 9.075e-09 7.04097e-09 5.78516e-09 4.01849e-08 0 0 0 0.0730457 -0.0138097 -0.0563347 -1.54048e-11 7.67469e-12 -8.06464e-12 -1.11588e+07 4.68282e+06 378333 
8 1 4 4.075e-09 1.61368e-08 2.04996e-08 4.32422e-08 0 0 0 0.0878509 0.138563 -0.414184 1.17483e-12 1.41661e-12 -7.9372e-13 -1.99617e+07 8.30662e+06 2.88787e+06 
16 1 5 4.575e-09 2.16104e-08 1.14495e-08 3.3971e-08 0 0 0 0.0495076 -0.0540275 -0.262348 9.54654e-14 6.174e-13 6.031e-13 -2.21051e+07 1.09763e+07 1.005e+06 
18 1 3 3.575e-09 2.88001e-08 9.03894e-09 3.67589e-08 0 0 0 0.0860796 0.0286885 -0.286596 3.45001e-13 1.27945e-13 3.56467e-13 -2.93247e+07 1.30877e+07 2.56846e+06 
5 1 2 3.075e-09 -1.86897e-08 2.43023e-08 2.66921e-08 0 0 0 -0.0650692 -0.458277 -0.320617 -9.19265e-14 -3.53903e-13 -1.66303e-13 -3.67647e+07 9.24074e+06 -2.53231e+06 
6 1 4 4.075e-09 -1.42571e-08 2.17344e-08 3.15337e-08 0 0 0 -0.0214363 -0.294645 -0.275427 -5.19681e-14 -4.98582e-13 3.85477e-13 -2.85171e+07 8.11873e+06 2.63206e+06 
9 1 5 4.575e-09 1.52561e-08 2.72486e-08 3.80986e-08 0 0 0 0.0276077 0.0377892 -0.536132 -4.60138e-13 -8.57659e-14 2.44239e-13 -1.8922e+07 1.1514e+07 137010 
10 1 12 9.075e-09 4.09271e-09 2.50812e-08 4.55432e-08 0 0 0 0.09049 0.142797 -0.411726 -2.46428e-12 6.49619e-13 -1.09763e-11 -1.36052e+07 4.7377e+06 2.43132e+06 
11 1 6 5.075e-09 -9.13637e-10 1.29264e-08 5.05272e-08 0 0 0 0.144429 0.224759 -0.159312 -4.84197e-12 6.98672e-12 6.08922e-12 -1.85306e+07 1.5019e+07 -2.71285e+06 
13 1 10 7.575e-09 -2.5032e-09 3.96683e-08 4.99888e-08 0 0 0 0.0895325 0.197634 -0.593238 3.19103e-13 -7.35279e-12 4.80705e-12 -1.65894e+07 5.08902e+06 2.68361e+06 
14 1 4 4.075e-09 -1.3444e-08 3.90037e-08 5.36492e-08 0 0 0 0.115168 0.230709 -0.515646 -1.33751e-13 5.62351e-13 -6.23248e-13 -7.00348e+06 7.56626e+06 -6.79022e+06 
