ITEM: TIMESTEP
130000
ITEM: NUMBER OF ATOMS
31
ITEM: BOX BOUNDS mm mm ss
-8.47369e-08 8.47369e-08
-8.47369e-08 8.47369e-08
-2.01588e-11 7.37472e-08
ITEM: ATOMS id mol type radius x y z ix iy iz vx vy vz fx fy fz omegax omegay omegaz 
17 1 7 5.575e-09 1.91266e-08 -2.18493e-09 2.25174e-08 0 0 0 -0.0426974 -0.234593 -0.00267412 3.7159e-13 -8.4071e-13 -2.23834e-13 -2.03869e+07 4.64337e+06 5.39125e+06 
2 1 7 5.575e-09 -3.21794e-08 5.51238e-09 2.42815e-08 0 0 0 0.0952218 -0.792612 0.313778 1.93173e-12 1.18884e-12 -1.95784e-12 -1.26869e+07 2.99512e+06 8.6675e+06 
1 1 1 2.575e-09 -2.86628e-08 1.20067e-08 2.10788e-08 0 0 0 -0.013282 -0.807298 0.16605 7.18871e-13 1.18969e-12 -6.66537e-13 -3.11938e+07 1.52593e+07 2.35984e+07 
3 1 3 3.575e-09 -2.81704e-08 1.79986e-08 2.05157e-08 0 0 0 -0.157412 -0.811451 0.00330267 -2.08326e-12 -4.29241e-14 1.4287e-12 -2.25359e+07 -248697 2.27319e+07 
4 1 2 3.075e-09 -2.4919e-08 2.23859e-08 2.41615e-08 0 0 0 -0.2086 -0.64484 -0.15262 -1.0116e-12 -8.78537e-13 1.01511e-12 -3.23691e+07 2.37252e+07 1.70167e+07 
30 1 9 6.575e-09 1.27147e-08 -4.88837e-08 4.6536e-08 0 0 0 0.0394362 0.0625622 0.839752 -8.49951e-13 1.58619e-12 -6.21917e-13 -1.10349e+07 -586777 -2.37822e+06 
29 1 2 3.075e-09 1.29011e-08 -4.52068e-08 3.76994e-08 0 0 0 0.0667569 -0.0766483 0.782623 1.04758e-12 -1.62097e-12 -1.44583e-12 -2.50958e+07 -2.89131e+06 -6.80951e+06 
28 1 1 2.575e-09 7.93552e-09 -4.31974e-08 3.6203e-08 0 0 0 0.0830586 -0.0825412 0.722214 -8.49611e-13 1.50817e-12 -4.37081e-13 -2.84044e+07 693352 -7.00908e+06 
21 1 4 4.075e-09 -8.20365e-09 -3.17808e-08 2.5828e-08 0 0 0 0.055852 -0.247222 0.600125 -1.21176e-13 3.71288e-14 -1.95103e-13 -2.62195e+07 4.88599e+06 2.04298e+06 
23 1 6 5.075e-09 9.89277e-09 -2.52535e-08 2.62008e-08 0 0 0 0.0536017 -0.210221 0.415414 6.06394e-14 -1.66081e-13 1.49146e-12 -1.85153e+07 3.85116e+06 660764 
22 1 8 6.075e-09 5.67278e-10 -2.96885e-08 3.02393e-08 0 0 0 0.0709807 -0.148282 0.523704 -1.02057e-12 1.55302e-12 -5.29812e-13 -1.56287e+07 3.41089e+06 736642 
27 1 8 6.075e-09 2.79042e-09 -3.7164e-08 3.94079e-08 0 0 0 0.103756 -0.0142943 0.625857 9.74931e-13 -3.93155e-13 1.66472e-12 -1.34622e+07 2.96557e+06 -13087.8 
31 1 8 6.075e-09 7.10928e-09 -2.69391e-08 4.42321e-08 0 0 0 0.112975 0.0562288 0.466706 -2.34852e-13 2.79336e-13 3.53884e-13 -1.54618e+07 3.1331e+06 1.47215e+06 
24 1 11 8.575e-09 -2.1274e-09 -1.75673e-08 3.78898e-08 0 0 0 0.0802627 -0.0463206 0.365714 1.22554e-12 1.95293e-12 3.54819e-12 -1.22663e+07 2.76955e+06 1.51345e+06 
25 1 4 4.075e-09 4.88366e-10 -5.25694e-09 3.75911e-08 0 0 0 0.0446657 -0.0454445 0.14288 -7.4171e-13 8.42029e-13 1.14198e-13 -2.47749e+07 1.01469e+07 4.64723e+06 
20 1 13 1.0075e-08 1.97821e-08 -7.52213e-09 4.55328e-08 0 0 0 0.0859374 0.104923 0.0116836 6.56862e-12 -5.81954e-12 6.99158e-13 -9.69906e+06 2.88829e+06 1.92374e+06 
7 1 8 6.075e-09 -1.18289e-08 1.46302e-08 3.81808e-08 0 0 0 -0.0201349 -0.124242 -0.15626 1.98844e-12 -4.74129e-13 -4.86401e-13 -1.68074e+07 9.14228e+06 1.95909e+06 
12 1 4 4.075e-09 -5.0425e-09 9.19785e-09 4.33083e-08 0 0 0 0.0342465 0.0259191 -0.0766066 -8.83184e-14 6.97086e-13 9.12386e-13 -3.38961e+07 5.9415e+06 9.1351e+06 
6 1 4 4.075e-09 -1.45114e-08 2.09452e-08 3.07721e-08 0 0 0 -0.121183 -0.288402 -0.256632 -1.46322e-14 -7.13895e-13 -2.89772e-13 -2.55053e+07 1.15114e+07 7.12874e+06 
15 1 8 6.075e-09 1.43625e-08 7.51761e-09 2.67674e-08 0 0 0 -0.058719 -0.172142 -0.163224 2.44717e-12 -4.81381e-13 -5.11898e-13 -1.87352e+07 7.61305e+06 3.06445e+06 
19 1 12 9.075e-09 7.15269e-09 5.77948e-09 3.99506e-08 0 0 0 0.0276846 0.0131444 -0.0914499 -2.77387e-12 6.6904e-12 -1.42552e-12 -1.31615e+07 5.24173e+06 2.45112e+06 
8 1 4 4.075e-09 1.62544e-08 2.07635e-08 4.19876e-08 0 0 0 0.0329542 0.122779 -0.462134 5.55921e-13 -2.40668e-14 -7.25781e-13 -1.57468e+07 1.07467e+07 1.81623e+06 
16 1 5 4.575e-09 2.1654e-08 1.14023e-08 3.33063e-08 0 0 0 -0.02358 -0.00467917 -0.303135 7.71621e-13 1.79796e-13 -8.35118e-14 -2.35197e+07 8.83032e+06 6.11434e+06 
18 1 3 3.575e-09 2.89162e-08 9.23625e-09 3.61068e-08 0 0 0 0.0166178 0.125735 -0.307219 7.31326e-13 2.34431e-13 -9.31873e-14 -3.10935e+07 8.24297e+06 9.39799e+06 
5 1 2 3.075e-09 -1.91407e-08 2.29658e-08 2.58558e-08 0 0 0 -0.191862 -0.486921 -0.268402 -1.06557e-12 1.76935e-13 4.56783e-13 -3.21659e+07 7.90603e+06 1.74857e+07 
13 1 10 7.575e-09 -2.28964e-09 4.01385e-08 4.84385e-08 0 0 0 0.0121529 0.152785 -0.593608 -4.91958e-13 -1.2177e-12 1.43004e-12 -1.35743e+07 5.63412e+06 2.95203e+06 
9 1 5 4.575e-09 1.52351e-08 2.729e-08 3.65888e-08 0 0 0 -0.0276093 0.036805 -0.553719 -5.66523e-13 -1.35139e-12 1.26582e-12 -1.58426e+07 1.23764e+07 -1.23416e+06 
10 1 12 9.075e-09 4.25523e-09 2.54168e-08 4.43781e-08 0 0 0 0.0331836 0.1217 -0.449285 -4.97677e-12 -3.54895e-12 -1.98811e-12 -1.08205e+07 3.59874e+06 2.28333e+06 
32 1 2 3.075e-09 2.1097e-08 -5.1065e-08 5.06384e-08 0 0 0 0.0258793 0.100015 0.88725 -2.29345e-13 -2.51041e-13 2.30543e-13 -2.66236e+07 -3.55644e+06 -5.64447e+06 
11 1 6 5.075e-09 -6.12838e-10 1.34631e-08 4.99509e-08 0 0 0 0.0966987 0.199668 -0.233534 -2.46146e-12 2.33518e-12 1.48941e-12 -1.70286e+07 1.87969e+07 -3.69203e+06 
14 1 4 4.075e-09 -1.31341e-08 3.96301e-08 5.23984e-08 0 0 0 0.0445717 0.194269 -0.499107 -1.12653e-13 -1.57936e-12 3.04956e-13 -2.78471e+07 1.17116e+07 4.69394e+06 
