ITEM: TIMESTEP
135000
ITEM: NUMBER OF ATOMS
31
ITEM: BOX BOUNDS mm mm ss
-8.47369e-08 8.47369e-08
-8.47369e-08 8.47369e-08
-2.01588e-11 7.28732e-08
ITEM: ATOMS id mol type radius x y z ix iy iz vx vy vz fx fy fz omegax omegay omegaz 
17 1 7 5.575e-09 1.90085e-08 -2.62314e-09 2.24953e-08 0 0 0 -0.0601392 0.0761561 -0.034122 -4.01597e-12 9.47717e-13 1.19353e-12 -1.56723e+07 -1.07055e+07 2.45207e+06 
1 1 1 2.575e-09 -2.90635e-08 1.04875e-08 2.16302e-08 0 0 0 -0.173971 -0.51194 0.178102 6.55889e-13 1.30824e-12 -7.17928e-13 -3.85804e+07 1.18381e+07 6.68402e+06 
3 1 3 3.575e-09 -2.86655e-08 1.64089e-08 2.05161e-08 0 0 0 -0.268277 -0.538525 0.00853885 -2.37981e-12 8.42833e-13 1.04254e-12 -2.02242e+07 2.04418e+06 1.99643e+07 
4 1 2 3.075e-09 -2.53883e-08 2.11167e-08 2.3711e-08 0 0 0 -0.339459 -0.397801 -0.126592 -1.70163e-12 -8.5057e-14 1.01019e-12 -2.72401e+07 1.30739e+07 1.8713e+07 
30 1 9 6.575e-09 1.32104e-08 -4.85388e-08 4.83251e-08 0 0 0 0.324708 0.181718 -0.141148 -4.50354e-12 6.04285e-12 -6.87449e-12 7.50204e+06 2.235e+07 5.52798e+07 
29 1 2 3.075e-09 1.29987e-08 -4.52749e-08 3.93282e-08 0 0 0 -0.0973338 0.182806 -0.128974 7.23423e-13 2.15274e-13 -1.50213e-12 -1.23307e+07 4.56627e+07 4.15362e+07 
28 1 1 2.575e-09 7.96493e-09 -4.33163e-08 3.80014e-08 0 0 0 -0.202225 0.030081 0.0591912 -1.0328e-12 1.57576e-12 -1.08945e-12 -4.84168e+07 5.06142e+07 -2.57566e+06 
21 1 4 4.075e-09 -8.25451e-09 -3.23839e-08 2.7385e-08 0 0 0 -0.113862 -0.00786919 -0.00434956 1.20465e-12 2.02515e-13 -2.00448e-12 -2.54478e+07 1.13077e+06 -2.88239e+06 
23 1 6 5.075e-09 9.85265e-09 -2.58403e-08 2.70938e-08 0 0 0 -0.087339 -0.0650706 -0.08129 -1.16605e-12 2.85045e-12 -6.314e-13 -1.54483e+07 922083 -3.11265e+06 
22 1 8 6.075e-09 5.91089e-10 -3.00411e-08 3.15121e-08 0 0 0 -0.105201 0.0222035 -0.0360006 -9.86263e-13 1.53991e-12 -4.743e-12 -9.49944e+06 -1.16611e+06 -2.93431e+06 
27 1 8 6.075e-09 2.93752e-09 -3.70776e-08 4.09932e-08 0 0 0 -0.145493 0.0903355 0.0186316 -4.83263e-13 -1.42666e-12 -1.77772e-12 -7.22254e+06 -974106 -1.42431e+06 
31 1 8 6.075e-09 7.32005e-09 -2.66407e-08 4.5273e-08 0 0 0 -0.132091 0.114522 -0.0396715 2.6306e-12 -1.47355e-12 -1.2238e-12 -8.09084e+06 -3.39773e+06 -1.33013e+06 
24 1 11 8.575e-09 -2.03185e-09 -1.759e-08 3.86422e-08 0 0 0 -0.10715 0.0748177 -0.13538 7.8259e-12 -2.90273e-12 -1.98149e-12 -7.47969e+06 -2.27191e+06 172770 
25 1 4 4.075e-09 5.08089e-10 -5.29784e-09 3.76788e-08 0 0 0 -0.124163 0.0716838 -0.243414 4.18587e-13 3.84326e-13 -7.35613e-13 -1.01433e+07 1.13302e+07 5.33159e+06 
20 1 13 1.0075e-08 1.99063e-08 -7.33446e-09 4.51643e-08 0 0 0 -0.0965029 0.0725413 -0.48111 9.16978e-12 -6.15072e-12 2.08278e-12 7.44677e+06 9.262e+06 -1.02254e+06 
2 1 7 5.575e-09 -3.24625e-08 4.2044e-09 2.53408e-08 0 0 0 -0.15943 -0.418799 0.346751 3.04998e-12 2.15919e-13 -3.26948e-12 -1.59074e+07 3.84309e+06 -4.72978e+06 
7 1 8 6.075e-09 -1.19439e-08 1.43987e-08 3.7791e-08 0 0 0 -0.205598 0.00191316 -0.152832 -2.10306e-12 3.94007e-12 1.42682e-12 -1.84867e+07 2.46861e+07 -1.96205e+07 
12 1 4 4.075e-09 -5.01429e-09 9.27212e-09 4.30402e-08 0 0 0 -0.161873 0.0179281 -0.195657 9.08668e-13 -4.94669e-13 -1.73931e-12 -1.18002e+07 7.34106e+06 3.67319e+06 
6 1 4 4.075e-09 -1.48104e-08 2.03201e-08 3.01305e-08 0 0 0 -0.282995 -0.118658 -0.215528 -9.88087e-13 8.8073e-14 -9.06455e-13 -2.53311e+07 1.64751e+07 -6.73847e+06 
15 1 8 6.075e-09 1.42309e-08 7.2574e-09 2.62923e-08 0 0 0 -0.13517 0.12028 -0.246852 2.33975e-12 2.12729e-12 2.15169e-12 -1.4134e+07 -1.41007e+07 4.87247e+06 
19 1 12 9.075e-09 7.14819e-09 5.8414e-09 3.95786e-08 0 0 0 -0.160319 0.0996356 -0.267081 7.02511e-12 2.85643e-12 5.22623e-14 8.41082e+06 5.6867e+06 4.67455e+06 
8 1 4 4.075e-09 1.62513e-08 2.1005e-08 4.09579e-08 0 0 0 -0.042451 -0.0466043 -0.312579 -2.34397e-13 -9.78903e-14 2.15965e-13 -8.39936e+06 -364734 -4.08028e+06 
16 1 5 4.575e-09 2.15365e-08 1.15252e-08 3.25714e-08 0 0 0 -0.288051 0.297503 -0.186089 -1.40768e-12 1.63476e-12 4.59938e-12 -1.32493e+07 -1.55819e+07 1.80212e+07 
18 1 3 3.575e-09 2.88379e-08 9.61352e-09 3.54541e-08 0 0 0 -0.307582 0.482679 -0.0169671 9.32466e-13 6.95234e-13 -1.91741e-12 -2.19525e+07 -1.95182e+07 1.73972e+07 
5 1 2 3.075e-09 -1.95781e-08 2.19207e-08 2.51919e-08 0 0 0 -0.341162 -0.256313 -0.201816 -2.14767e-12 1.13375e-12 8.46617e-13 -2.32218e+07 5.01332e+06 1.59714e+07 
13 1 10 7.575e-09 -2.29847e-09 4.05037e-08 4.70318e-08 0 0 0 -0.0373594 0.0290803 -0.512495 -5.70644e-14 -2.5606e-12 -1.3805e-12 -9.93105e+06 -499097 -267897 
9 1 5 4.575e-09 1.51419e-08 2.73369e-08 3.53493e-08 0 0 0 -0.0165423 -0.0874916 -0.364232 4.31719e-13 -1.1488e-12 2.43571e-12 -7.99775e+06 1.37016e+06 -4.88097e+06 
10 1 12 9.075e-09 4.26299e-09 2.5695e-08 4.33305e-08 0 0 0 -0.0405458 -0.0049405 -0.380362 -8.45313e-12 -6.36074e-12 -1.85035e-12 -5.95212e+06 -4.08815e+06 -1.52686e+06 
32 1 2 3.075e-09 2.17645e-08 -5.06109e-08 5.21177e-08 0 0 0 0.567763 0.649601 -0.435111 -2.29375e-12 8.68796e-13 3.74333e-12 1.01052e+08 2.79772e+07 1.03088e+08 
11 1 6 5.075e-09 -4.92734e-10 1.39178e-08 4.93578e-08 0 0 0 -0.0816696 0.0606877 -0.288822 -2.34376e-12 -1.6403e-12 -1.44049e-12 -8.43422e+06 1.1647e+07 -8.42936e+06 
14 1 4 4.075e-09 -1.30887e-08 4.01082e-08 5.11492e-08 0 0 0 -0.0352181 0.0825283 -0.50089 2.06756e-13 -2.37972e-12 3.52346e-14 -1.1997e+07 2.65269e+06 -2.52569e+06 
