ITEM: TIMESTEP
140000
ITEM: NUMBER OF ATOMS
31
ITEM: BOX BOUNDS mm mm ss
-8.47369e-08 8.47369e-08
-8.47369e-08 8.47369e-08
-2.01588e-11 7.10164e-08
ITEM: ATOMS id mol type radius x y z ix iy iz vx vy vz fx fy fz omegax omegay omegaz 
17 1 7 5.575e-09 1.88788e-08 -2.38046e-09 2.24636e-08 0 0 0 -0.0580108 0.100005 -0.00720028 -3.71989e-12 2.26367e-12 -3.25832e-13 -1.76545e+07 -1.08214e+07 2.85123e+06 
1 1 1 2.575e-09 -2.9815e-08 1.00504e-08 2.17125e-08 0 0 0 -0.472531 -0.0773928 -0.0403909 5.93265e-13 9.72491e-13 -9.84448e-13 7.11384e+06 2.32754e+07 3.49653e+06 
3 1 3 3.575e-09 -2.95569e-08 1.59632e-08 2.05152e-08 0 0 0 -0.500738 -0.0691926 -0.0035757 1.41152e-12 7.45061e-13 2.02022e-12 4.38678e+06 -646448 2.66035e+06 
4 1 2 3.075e-09 -2.62993e-08 2.07609e-08 2.35943e-08 0 0 0 -0.470538 -0.0827803 0.00541943 4.33887e-13 6.34212e-13 1.78541e-12 -2.16804e+06 4.97843e+06 -7.10925e+06 
30 1 9 6.575e-09 1.34172e-08 -4.86005e-08 4.52362e-08 0 0 0 0.347526 -0.616484 -2.3848 1.66701e-12 -5.12388e-13 -3.84995e-12 6.25991e+07 -4.65683e+06 -2.15764e+06 
29 1 2 3.075e-09 1.36224e-08 -4.48851e-08 3.64161e-08 0 0 0 0.393859 0.05991 -2.09842 9.94852e-13 -2.02701e-12 -1.78739e-12 1.0511e+08 -4.09314e+06 -159371 
28 1 1 2.575e-09 8.61728e-09 -4.30116e-08 3.4876e-08 0 0 0 0.388538 0.221167 -1.88308 -9.52395e-13 1.35317e-12 -4.15823e-13 1.09316e+08 9.64906e+06 2.6747e+06 
21 1 4 4.075e-09 -7.889e-09 -3.19118e-08 2.46947e-08 0 0 0 0.138419 0.225458 -1.27155 -6.88216e-13 -9.70302e-13 4.55404e-13 5.69848e+07 9.19414e+06 2.6275e+07 
23 1 6 5.075e-09 1.00648e-08 -2.49632e-08 2.49209e-08 0 0 0 0.0186896 0.519776 -1.18296 -1.25971e-12 -1.1714e-12 -1.20641e-12 3.8778e+07 8.74132e+06 1.86758e+07 
22 1 8 6.075e-09 8.77487e-10 -2.96268e-08 2.90183e-08 0 0 0 0.135818 0.218994 -1.26133 -1.34677e-12 -6.17615e-13 -1.14e-12 3.21739e+07 9.60365e+06 1.60089e+07 
27 1 8 6.075e-09 3.34346e-09 -3.71107e-08 3.81178e-08 0 0 0 0.346778 -0.0195036 -1.51425 1.30353e-12 -2.26928e-12 7.38944e-13 2.91837e+07 9.62533e+06 1.67353e+07 
31 1 8 6.075e-09 7.4535e-09 -2.68225e-08 4.29891e-08 0 0 0 0.232191 -0.103433 -1.23924 6.27705e-13 -5.78277e-13 -1.78832e-12 3.13313e+07 9.06515e+06 1.45002e+07 
24 1 11 8.575e-09 -2.02686e-09 -1.76159e-08 3.67661e-08 0 0 0 0.067381 -0.0364934 -0.890087 6.32644e-13 -1.2385e-12 -5.85839e-13 2.58929e+07 1.0047e+07 9.74499e+06 
25 1 4 4.075e-09 2.56342e-10 -5.23952e-09 3.64779e-08 0 0 0 -0.102925 0.00880587 -0.511843 -3.00238e-13 1.51444e-13 -4.31573e-13 4.35359e+07 9.01991e+06 1.77439e+07 
20 1 13 1.0075e-08 1.96939e-08 -7.16786e-09 4.39398e-08 0 0 0 -0.0775758 0.0639208 -0.491023 -1.40952e-12 -2.63082e-12 -1.38056e-12 6.40462e+06 7.83685e+06 6.25348e+06 
2 1 7 5.575e-09 -3.30792e-08 3.75501e-09 2.5522e-08 0 0 0 -0.458031 -0.0385522 0.0324612 -1.62222e-13 -2.04741e-12 -1.00474e-12 -1.04413e+07 8.07328e+06 -1.02065e+07 
7 1 8 6.075e-09 -1.25539e-08 1.42034e-08 3.73361e-08 0 0 0 -0.26304 -0.107445 -0.144557 -8.50888e-12 -1.04331e-11 -4.58371e-12 -2.2599e+06 1.4155e+07 -6.87922e+06 
12 1 4 4.075e-09 -5.5375e-09 9.08467e-09 4.24765e-08 0 0 0 -0.213282 -0.121967 -0.209404 4.319e-12 5.01139e-12 4.30434e-13 7.72145e+06 2.98821e+06 5.54802e+06 
6 1 4 4.075e-09 -1.55669e-08 2.01398e-08 2.97439e-08 0 0 0 -0.35208 -0.101007 -0.117633 -4.1014e-13 2.48845e-12 9.22024e-14 -5.01364e+06 1.49448e+07 -6.22846e+06 
15 1 8 6.075e-09 1.39271e-08 7.60416e-09 2.57198e-08 0 0 0 -0.146665 0.129736 -0.231191 -1.39584e-12 -6.15402e-13 -1.36016e-13 -1.16647e+07 -1.63695e+07 5.80512e+06 
19 1 12 9.075e-09 6.66007e-09 5.94356e-09 3.88671e-08 0 0 0 -0.198999 0.0195675 -0.277112 -2.37175e-12 -2.46457e-12 2.85395e-12 1.55001e+07 2.54657e+06 9.13516e+06 
8 1 4 4.075e-09 1.58646e-08 2.0568e-08 4.03288e-08 0 0 0 -0.229889 -0.140668 -0.216508 -4.73477e-13 -1.16093e-12 -3.75408e-12 -8.50171e+06 -3.31307e+06 366936 
16 1 5 4.575e-09 2.08874e-08 1.21668e-08 3.21814e-08 0 0 0 -0.298036 0.269645 -0.166694 -1.73433e-12 -6.56728e-13 1.8322e-13 -1.59835e+07 -2.11722e+07 9.33624e+06 
18 1 3 3.575e-09 2.80334e-08 1.05099e-08 3.55673e-08 0 0 0 -0.359377 0.428272 0.0412447 -7.30149e-13 -2.05862e-13 2.74389e-13 -2.51636e+07 -2.82002e+07 1.60699e+07 
5 1 2 3.075e-09 -2.04681e-08 2.16785e-08 2.49176e-08 0 0 0 -0.439542 -0.111839 -0.0527778 7.82247e-13 8.09432e-13 -2.10131e-12 -7.52645e+06 1.8614e+07 -8.17728e+06 
13 1 10 7.575e-09 -2.54864e-09 4.03442e-08 4.59037e-08 0 0 0 -0.223033 -0.0684199 -0.500318 3.42425e-12 5.22064e-13 8.11665e-12 -1.14999e+07 -1.90431e+06 -1.76565e+06 
9 1 5 4.575e-09 1.48567e-08 2.68016e-08 3.45923e-08 0 0 0 -0.184798 -0.194821 -0.277404 -2.62769e-12 -2.83458e-12 -2.58417e-12 -1.08569e+07 -5.86565e+06 -5.23676e+06 
10 1 12 9.075e-09 3.90565e-09 2.54119e-08 4.25247e-08 0 0 0 -0.231594 -0.104215 -0.316459 -5.05476e-12 1.60992e-11 -1.44099e-11 -7.9858e+06 -4.57069e+06 -2.29515e+06 
32 1 2 3.075e-09 2.17929e-08 -5.07018e-08 4.93934e-08 0 0 0 0.304346 -0.925785 -2.45421 6.47025e-14 1.2555e-14 5.54213e-14 1.08466e+08 -2.44198e+07 9.75013e+06 
11 1 6 5.075e-09 -9.84099e-10 1.37835e-08 4.8731e-08 0 0 0 -0.235412 -0.0543897 -0.234079 1.11082e-11 -8.431e-13 1.02303e-11 -1.4597e+07 -8.90383e+06 7.83029e+06 
14 1 4 4.075e-09 -1.33893e-08 4.02004e-08 4.99026e-08 0 0 0 -0.226011 0.00574217 -0.505969 -7.14041e-13 8.26402e-14 -1.34466e-12 -1.07441e+07 -1.89513e+06 -5.91155e+06 
