ITEM: TIMESTEP
145000
ITEM: NUMBER OF ATOMS
31
ITEM: BOX BOUNDS mm mm ss
-8.47369e-08 8.47369e-08
-8.47369e-08 8.47369e-08
-2.01588e-11 6.97862e-08
ITEM: ATOMS id mol type radius x y z ix iy iz vx vy vz fx fy fz omegax omegay omegaz 
21 1 4 4.075e-09 -7.42098e-09 -3.11693e-08 2.11882e-08 0 0 0 0.424338 -0.383957 -0.395096 2.4261e-12 1.11919e-12 -1.56293e-12 -6.23204e+07 -4.36491e+07 -9.43677e+06 
23 1 6 5.075e-09 1.02972e-08 -2.36993e-08 2.20183e-08 0 0 0 0.428836 -0.389149 -0.02856 2.56397e-12 6.92928e-13 -3.75194e-12 -2.95866e+06 -2.19783e+07 -1.49326e+07 
17 1 7 5.575e-09 1.8919e-08 -2.15736e-09 2.24348e-08 0 0 0 0.211567 0.128466 -0.0115411 -2.04266e-12 2.6007e-13 -3.93172e-13 -1.45702e+07 -9.56519e+06 -6.88526e+06 
1 1 1 2.575e-09 -3.09553e-08 9.59177e-09 2.18408e-08 0 0 0 -0.397994 -0.0259444 0.0256771 -8.15369e-13 3.88864e-13 -2.04113e-12 2.07828e+06 7.44554e+07 7.57593e+06 
3 1 3 3.575e-09 -3.07857e-08 1.54797e-08 2.0512e-08 0 0 0 -0.407876 -0.0481829 -0.0438118 1.78091e-12 -2.40424e-12 8.74115e-13 -2.10593e+07 2.33681e+07 -2.38202e+07 
30 1 9 6.575e-09 1.54134e-08 -4.86212e-08 3.92795e-08 0 0 0 0.876775 -0.21376 -0.0586395 -2.03413e-11 1.30666e-11 -6.05684e-12 2.61458e+07 7.7833e+07 2.32647e+07 
29 1 2 3.075e-09 1.47071e-08 -4.38295e-08 3.10222e-08 0 0 0 0.115378 0.053073 0.156338 1.75814e-12 -3.59023e-12 -4.24689e-12 5.31166e+07 6.91418e+07 4.2532e+07 
32 1 2 3.075e-09 2.41831e-08 -5.07139e-08 4.25296e-08 0 0 0 1.23278 -0.0817342 -0.932652 -3.84167e-12 1.47951e-12 4.08242e-12 -1.133e+07 1.231e+08 1.55881e+07 
28 1 1 2.575e-09 9.43148e-09 -4.2212e-08 3.03226e-08 0 0 0 0.0448722 -0.0654276 0.389785 -1.7609e-13 1.40465e-12 -8.60615e-13 3.06029e+07 -1.29084e+07 1.48587e+07 
22 1 8 6.075e-09 1.26451e-09 -2.89634e-08 2.57118e-08 0 0 0 0.27556 -0.235393 -0.183973 6.00146e-12 5.22805e-12 -2.77543e-12 -3.19364e+07 -3.05374e+07 -3.96319e+06 
27 1 8 6.075e-09 3.95808e-09 -3.69694e-08 3.42859e-08 0 0 0 -0.0327851 0.031826 0.162959 1.24236e-11 1.83984e-12 -5.71137e-12 -3.46422e+07 -2.7916e+07 -1.03985e+07 
31 1 8 6.075e-09 7.76168e-09 -2.69126e-08 3.9844e-08 0 0 0 -0.0995519 0.213651 -0.112162 6.35848e-12 -7.15886e-13 1.00829e-12 -3.84608e+07 -2.00861e+07 -3.37543e+06 
24 1 11 8.575e-09 -1.87497e-09 -1.75097e-08 3.41756e-08 0 0 0 0.048573 0.0417756 -0.639499 2.56995e-12 -1.33318e-11 1.7281e-11 -3.05688e+07 -2.42635e+07 824943 
25 1 4 4.075e-09 1.8169e-10 -5.10471e-09 3.47775e-08 0 0 0 0.00559585 0.0637103 -0.79709 -4.62514e-13 -9.84921e-13 8.54483e-13 7.06453e+06 -5.22375e+07 2.00471e+06 
20 1 13 1.0075e-08 1.94807e-08 -7.04146e-09 4.27057e-08 0 0 0 -0.173946 -0.0535246 -0.48906 -1.33103e-11 1.13696e-11 9.07117e-12 -584525 3.08554e+06 -6.90697e+06 
4 1 2 3.075e-09 -2.73634e-08 2.0341e-08 2.3298e-08 0 0 0 -0.258262 -0.0420501 -0.252963 -6.76991e-13 -7.82922e-13 2.53764e-12 -2.24817e+07 2.89458e+07 -5.71755e+06 
2 1 7 5.575e-09 -3.40326e-08 3.35152e-09 2.58891e-08 0 0 0 -0.219193 -0.00201628 0.182625 1.07214e-12 7.00778e-13 -1.19932e-12 -1.17123e+07 1.23756e+07 4.50469e+06 
7 1 8 6.075e-09 -1.31263e-08 1.39075e-08 3.63627e-08 0 0 0 -0.138148 -0.00676577 -0.476446 1.90781e-12 -6.89035e-12 -3.41747e-12 9.088e+06 -8.13102e+06 1.37057e+07 
12 1 4 4.075e-09 -6.02604e-09 8.88714e-09 4.14847e-08 0 0 0 -0.132349 -0.0161854 -0.506981 1.22433e-12 -3.61193e-13 -1.49195e-12 9.95869e+06 706169 -8.01639e+06 
6 1 4 4.075e-09 -1.63369e-08 1.98137e-08 2.88285e-08 0 0 0 -0.171032 -0.0366621 -0.479863 4.41085e-12 -2.72194e-12 -5.43764e-13 1.34669e+06 1.86531e+06 1.18307e+07 
15 1 8 6.075e-09 1.40069e-08 7.99542e-09 2.51789e-08 0 0 0 0.208495 0.180884 -0.214997 2.82255e-12 1.75745e-12 3.83483e-12 -1.53256e+06 -3.3777e+07 -3.91986e+06 
19 1 12 9.075e-09 6.27789e-09 6.0398e-09 3.80054e-08 0 0 0 -0.10539 0.0269024 -0.434592 -1.94222e-12 -2.96189e-12 4.09787e-12 2.13269e+07 -1.67308e+07 1.47e+06 
8 1 4 4.075e-09 1.52461e-08 2.05677e-08 3.91747e-08 0 0 0 -0.174192 0.00283603 -0.495524 1.50727e-12 1.72026e-12 6.42518e-13 4.52387e+06 -1.6506e+06 -3.57537e+06 
16 1 5 4.575e-09 2.05666e-08 1.26579e-08 3.19793e-08 0 0 0 -0.0361296 0.187839 0.0183077 2.04989e-12 1.21193e-12 8.82524e-13 -2.65638e+06 -4.00706e+07 2.57241e+06 
18 1 3 3.575e-09 2.73789e-08 1.10335e-08 3.60076e-08 0 0 0 -0.217716 0.198044 0.33036 2.34312e-12 4.51913e-13 -1.20646e-12 -5.29381e+06 -5.01021e+07 -5.74895e+06 
5 1 2 3.075e-09 -2.14615e-08 2.12946e-08 2.42218e-08 0 0 0 -0.220776 -0.103847 -0.441155 -1.57964e-14 5.70018e-12 3.93743e-12 -2.74602e+07 2.35156e+07 -1.91878e+07 
13 1 10 7.575e-09 -3.30153e-09 4.02424e-08 4.46496e-08 0 0 0 -0.158583 -0.0102088 -0.374368 -2.12247e-12 -4.29611e-13 -4.10349e-12 9.96914e+06 -9.13028e+06 -2.91513e+06 
9 1 5 4.575e-09 1.41688e-08 2.67398e-08 3.33846e-08 0 0 0 -0.166261 0.0393254 -0.461389 7.51821e-13 -1.2419e-12 -2.97846e-14 6.13768e+06 981694 -549374 
10 1 12 9.075e-09 3.25411e-09 2.53335e-08 4.13636e-08 0 0 0 -0.16436 0.00458492 -0.462476 1.257e-11 1.08666e-13 8.56792e-12 6.23471e+06 1.96774e+06 -569594 
11 1 6 5.075e-09 -1.5156e-09 1.37098e-08 4.76714e-08 0 0 0 -0.122051 -0.0333972 -0.495557 -3.17624e-12 -1.21026e-12 -2.25121e-12 -837312 2.63571e+06 7.83586e+06 
14 1 4 4.075e-09 -1.414e-08 4.00468e-08 4.86522e-08 0 0 0 -0.197197 -0.0018796 -0.482615 1.15524e-14 -7.70296e-13 5.46853e-13 2.03452e+06 -8.38435e+06 -3.71568e+06 
