ITEM: TIMESTEP
150000
ITEM: NUMBER OF ATOMS
31
ITEM: BOX BOUNDS mm mm ss
-8.47369e-08 8.47369e-08
-8.47369e-08 8.47369e-08
-2.01588e-11 6.85947e-08
ITEM: ATOMS id mol type radius x y z ix iy iz vx vy vz fx fy fz omegax omegay omegaz 
21 1 4 4.075e-09 -6.57867e-09 -3.19625e-08 2.10126e-08 0 0 0 0.0839081 -0.223924 -0.00331026 -1.00654e-12 -6.98499e-12 1.62642e-12 1.47995e+07 -1.38447e+06 1.95892e+07 
23 1 6 5.075e-09 1.10622e-08 -2.43129e-08 2.20133e-08 0 0 0 0.0873857 -0.235717 -0.0258353 6.53489e-12 -9.93893e-13 4.39353e-12 -5.0848e+07 -2.11351e+07 5.0243e+06 
17 1 7 5.575e-09 1.9697e-08 -1.80401e-09 2.24173e-08 0 0 0 0.314269 0.126901 -0.00713851 8.42357e-13 -2.06699e-13 3.29309e-13 -1.8125e+07 -1.43246e+07 3.98984e+06 
1 1 1 2.575e-09 -3.13777e-08 9.63985e-09 2.20079e-08 0 0 0 -0.323252 0.0709981 -0.0279184 1.15977e-12 -9.83278e-13 -3.49897e-12 1.07198e+07 9.59999e+07 19524.8 
3 1 3 3.575e-09 -3.14198e-08 1.54891e-08 2.05091e-08 0 0 0 -0.24431 0.060087 -0.0430915 1.11731e-12 -2.05325e-12 3.03098e-12 -1.51467e+07 -1.76614e+06 -3.27917e+07 
30 1 9 6.575e-09 1.49205e-08 -4.70376e-08 4.26434e-08 0 0 0 -0.0134918 0.464251 0.979173 -3.78951e-12 -3.31649e-12 -4.86304e-12 -1.83687e+07 1.29058e+07 1.61205e+07 
29 1 2 3.075e-09 1.50948e-08 -4.35581e-08 3.37271e-08 0 0 0 -0.113682 0.132755 0.846926 6.96822e-13 -3.22325e-12 -2.69768e-12 -7.23682e+07 -6.20383e+06 -2.31902e+06 
28 1 1 2.575e-09 9.9777e-09 -4.22875e-08 3.19565e-08 0 0 0 -0.0667625 -0.00670218 0.613743 -1.98308e-12 4.40352e-13 2.608e-14 -6.98263e+07 -4.91381e+07 8.68733e+06 
22 1 8 6.075e-09 1.89005e-09 -2.93256e-08 2.57123e-08 0 0 0 0.0262519 -0.102104 0.0302554 -7.83624e-14 -3.44549e-12 -4.77159e-12 -2.89518e+07 -1.19215e+07 -2.83746e+06 
27 1 8 6.075e-09 4.23947e-09 -3.66911e-08 3.49389e-08 0 0 0 -0.119757 0.123825 0.257552 3.86311e-12 4.69037e-12 -6.87755e-13 -2.49624e+07 -1.01753e+07 -4.68252e+06 
31 1 8 6.075e-09 7.86722e-09 -2.62601e-08 3.98884e-08 0 0 0 -0.120614 0.231861 0.0220122 -4.83888e-12 5.63462e-12 -8.23885e-13 -2.84877e+07 -1.15041e+07 -4.98139e+06 
24 1 11 8.575e-09 -1.58115e-09 -1.73243e-08 3.32382e-08 0 0 0 -0.0243176 0.0974377 -0.315594 2.546e-12 -7.7553e-13 3.00033e-12 -2.40957e+07 -7.89818e+06 -1.55222e+06 
25 1 4 4.075e-09 3.74281e-10 -4.88877e-09 3.32478e-08 0 0 0 0.0142778 0.0893808 -0.575107 -2.6998e-12 1.38655e-12 -2.34957e-12 -1.74963e+07 -1.69455e+07 -6.50952e+06 
20 1 13 1.0075e-08 1.93842e-08 -6.98954e-09 4.14702e-08 0 0 0 -0.0319733 0.0245138 -0.496402 3.01285e-12 -1.24428e-12 -7.58118e-13 2.53878e+06 3.19991e+06 -1.1925e+06 
4 1 2 3.075e-09 -2.79126e-08 2.04662e-08 2.29646e-08 0 0 0 -0.167338 0.0408484 -0.135642 -2.03045e-12 1.43527e-12 4.30243e-12 5.82432e+06 3.22201e+07 1.97283e+07 
2 1 7 5.575e-09 -3.4144e-08 3.43747e-09 2.63294e-08 0 0 0 -0.0808303 0.0822899 0.121907 -6.91166e-12 -3.0987e-12 -9.1576e-13 -1.35871e+07 1.59942e+07 2.29098e+06 
7 1 8 6.075e-09 -1.32485e-08 1.40357e-08 3.51858e-08 0 0 0 -0.0539147 0.0458514 -0.446698 1.35706e-13 -3.71666e-12 -4.23466e-12 2.46123e+06 5.18735e+06 3.20128e+06 
12 1 4 4.075e-09 -6.123e-09 8.94416e-09 4.02007e-08 0 0 0 -0.045356 0.0220679 -0.498257 2.03497e-13 2.79185e-12 -3.09406e-13 7.56919e+06 -251962 -1.3456e+06 
6 1 4 4.075e-09 -1.66228e-08 2.00381e-08 2.78012e-08 0 0 0 -0.115492 0.0283029 -0.423651 8.60642e-12 1.30686e-12 -1.86011e-12 2.15778e+06 1.47604e+07 -9.95283e+06 
15 1 8 6.075e-09 1.46094e-08 8.41078e-09 2.4535e-08 0 0 0 0.22668 0.135196 -0.267401 1.19352e-12 8.96664e-15 2.31935e-12 -8.27289e+06 -3.07246e+07 4.34799e+06 
19 1 12 9.075e-09 6.26389e-09 6.22735e-09 3.69228e-08 0 0 0 -0.0142463 0.0593852 -0.446853 -1.17878e-11 4.28994e-12 -3.23571e-13 1.35018e+07 -1.18746e+07 402450 
8 1 4 4.075e-09 1.51645e-08 2.05407e-08 3.79239e-08 0 0 0 -0.0270334 -0.0165314 -0.504955 4.23881e-12 4.59928e-12 3.51068e-12 302268 -330377 -2.93446e+06 
16 1 5 4.575e-09 2.05269e-08 1.32702e-08 3.17725e-08 0 0 0 -0.0544491 0.236814 -0.105026 9.50522e-13 8.7631e-13 2.16641e-13 -9.04968e+06 -3.83132e+07 8.63019e+06 
18 1 3 3.575e-09 2.68535e-08 1.18243e-08 3.65848e-08 0 0 0 -0.251365 0.342635 0.185825 3.33943e-13 1.78895e-13 7.51528e-13 -1.27318e+07 -4.892e+07 7.71202e+06 
5 1 2 3.075e-09 -2.19751e-08 2.15117e-08 2.34594e-08 0 0 0 -0.167562 0.0653951 -0.320353 8.64487e-13 6.63065e-12 3.07993e-12 -4.93272e+06 2.48419e+07 -7.70746e+06 
13 1 10 7.575e-09 -3.36165e-09 4.02385e-08 4.33961e-08 0 0 0 -0.0211906 0.0085092 -0.500898 -1.35741e-11 -5.34707e-12 -2.18107e-11 -2.08482e+06 1.22089e+06 8849.16 
9 1 5 4.575e-09 1.4092e-08 2.67113e-08 3.21314e-08 0 0 0 -0.0207769 -0.0128897 -0.500906 2.95181e-12 2.04245e-12 2.23396e-12 775762 1.97805e+06 -3.04088e+06 
10 1 12 9.075e-09 3.17934e-09 2.5322e-08 4.01161e-08 0 0 0 -0.0287583 -0.00707516 -0.507671 1.52676e-11 -1.02997e-11 1.55897e-11 -2.91016e+06 1.78238e+06 995350 
32 1 2 3.075e-09 2.3303e-08 -4.84911e-08 4.70561e-08 0 0 0 0.0645957 0.764942 0.930176 -6.93075e-13 -1.2045e-12 4.49129e-14 1.39688e+07 -2.29084e+06 5.92363e+07 
11 1 6 5.075e-09 -1.61117e-09 1.37093e-08 4.64286e-08 0 0 0 -0.0420576 0.000837042 -0.489837 -5.22837e-12 1.35896e-11 6.26559e-12 153845 1.91397e+06 -3.16577e+06 
14 1 4 4.075e-09 -1.41992e-08 4.00511e-08 4.7402e-08 0 0 0 -0.0152623 0.0253401 -0.488169 1.33447e-11 3.88476e-12 -7.35223e-13 4.82976e+06 2.92594e+06 -2.7397e+06 
