ITEM: TIMESTEP
15000
ITEM: NUMBER OF ATOMS
31
ITEM: BOX BOUNDS mm mm ss
-8.47369e-08 8.47369e-08
-8.47369e-08 8.47369e-08
-2.01588e-11 1.02683e-07
ITEM: ATOMS id mol type radius x y z ix iy iz vx vy vz fx fy fz omegax omegay omegaz 
30 1 9 6.575e-09 1.23958e-08 -4.68748e-08 3.29541e-08 0 0 0 -0.04877 0.00223611 0.0225779 1.94182e-12 -3.55292e-12 3.28085e-13 1.40216e+07 1.21308e+07 1.0115e+07 
32 1 2 3.075e-09 2.1114e-08 -4.98788e-08 3.55657e-08 0 0 0 0.0147767 0.0516511 -0.134438 -1.57138e-13 -1.39454e-12 2.0871e-13 -2.7995e+07 2.5364e+07 -2.72886e+06 
21 1 4 4.075e-09 -1.03153e-08 -2.52828e-08 2.10597e-08 0 0 0 0.0615053 -0.0372062 -0.0301117 1.98078e-12 -1.04209e-11 -1.68011e-12 -3.52197e+07 -5.89647e+06 1.34344e+07 
22 1 8 6.075e-09 -1.22867e-09 -2.46067e-08 2.52719e-08 0 0 0 0.0237219 0.0192807 0.00100381 -4.08723e-12 -1.40024e-11 -8.29432e-12 -1.0817e+07 -4.94578e+06 7.76169e+06 
27 1 8 6.075e-09 1.67759e-09 -3.42723e-08 3.1821e-08 0 0 0 -0.0182348 0.00140209 -0.00615881 2.28662e-11 5.26026e-13 2.66393e-11 1.04566e+06 -2.31385e+06 -1.70516e+06 
28 1 1 2.575e-09 6.67945e-09 -3.84047e-08 2.62489e-08 0 0 0 -0.035805 0.0425817 -0.0385645 -4.10116e-13 7.19503e-14 2.64552e-12 2.25613e+07 9.71689e+06 -1.57143e+06 
29 1 2 3.075e-09 1.18272e-08 -4.04739e-08 2.58587e-08 0 0 0 -0.0452605 0.024012 0.0467909 2.30858e-12 -9.48258e-13 -3.36547e-12 -9.25782e+06 -3.67553e+07 -7.94489e+06 
31 1 8 6.075e-09 6.11034e-09 -2.56661e-08 3.90943e-08 0 0 0 -0.0226542 -0.0141284 0.0211538 -1.28395e-11 6.49815e-12 -1.93367e-11 -1.22049e+06 -3.56349e+06 -1.08809e+06 
24 1 11 8.575e-09 -3.43229e-09 -1.50276e-08 3.60371e-08 0 0 0 0.0135657 0.014362 0.0054414 -1.44157e-11 8.71864e-12 2.25998e-12 13157.9 -3.71702e+06 -1.30156e+06 
25 1 4 4.075e-09 -5.60226e-10 -3.31356e-09 3.96435e-08 0 0 0 0.0170682 0.00326808 -0.00669903 7.1881e-13 1.06758e-12 9.66407e-13 1.52264e+06 -883834 484546 
23 1 6 5.075e-09 7.76332e-09 -1.88567e-08 2.22677e-08 0 0 0 0.0344656 0.021295 0.0208893 -3.03661e-12 6.75716e-12 2.06123e-14 -7.24088e+06 -5.75806e+06 1.58432e+06 
2 1 7 5.575e-09 -3.42729e-08 1.64086e-08 3.19809e-08 0 0 0 -0.00637183 -0.00419021 0.00796618 2.71334e-12 2.00659e-12 -1.42773e-13 3.72647e+06 -544077 5.08368e+06 
15 1 8 6.075e-09 1.29787e-08 1.1782e-08 3.24154e-08 0 0 0 0.0056442 0.00520191 0.0144825 3.86581e-12 5.56715e-13 1.86019e-13 1.21201e+06 -873502 799757 
16 1 5 4.575e-09 2.09141e-08 1.27316e-08 3.92813e-08 0 0 0 0.0166703 -0.0165451 0.007479 1.51664e-14 9.4676e-13 1.31221e-12 3.41784e+06 4.21647e+06 -1.17214e+06 
17 1 7 5.575e-09 1.71203e-08 4.2949e-09 2.45611e-08 0 0 0 0.00606134 0.020224 -0.000122967 8.71904e-13 6.04908e-13 -1.85939e-12 2.00294e+06 1.83216e+06 -665531 
18 1 3 3.575e-09 2.82946e-08 9.47231e-09 3.97067e-08 0 0 0 0.0181403 -0.0178977 -0.0131138 2.35342e-13 1.07647e-13 7.35128e-14 1.01654e+07 -7.1793e+06 2.8977e+06 
1 1 1 2.575e-09 -3.0629e-08 2.35816e-08 3.22453e-08 0 0 0 -0.00774402 -0.0010529 -0.0202482 -5.81768e-13 1.7315e-12 -1.1808e-13 -4.68836e+06 1.6903e+07 -3.38409e+06 
3 1 3 3.575e-09 -2.97139e-08 2.85056e-08 3.56187e-08 0 0 0 0.0274126 -0.0365579 0.0250644 4.78206e-13 -3.17243e-12 1.41072e-13 1.46132e+07 -1.90709e+07 -1.38954e+07 
4 1 2 3.075e-09 -2.59534e-08 2.97469e-08 4.08562e-08 0 0 0 0.0288519 -0.0599422 0.0290314 2.52078e-12 -2.90993e-12 -8.77983e-13 1.08191e+07 2.53525e+07 3.50979e+07 
20 1 13 1.0075e-08 1.92015e-08 -7.86263e-09 4.68091e-08 0 0 0 0.00348593 -0.0120535 -0.0153609 -6.58757e-12 9.64881e-12 -3.71979e-12 -417739 -219375 1.41153e+06 
7 1 8 6.075e-09 -1.2302e-08 1.56488e-08 4.82428e-08 0 0 0 0.0203629 -0.0387674 0.0153916 1.16464e-11 -2.48135e-12 -3.27461e-12 2.7542e+06 7.65047e+06 899035 
11 1 6 5.075e-09 -2.42073e-10 9.03691e-09 5.74614e-08 0 0 0 0.000331966 0.024914 0.0443866 -4.86849e-12 4.06572e-12 -3.2831e-12 8.89688e+06 1.87251e+07 -5.00933e+06 
12 1 4 4.075e-09 -5.39822e-09 8.50936e-09 5.00401e-08 0 0 0 0.0248629 -0.0223677 0.0193088 -1.93304e-11 9.64321e-12 3.71278e-12 1.57961e+07 2.42148e+07 -1.19031e+07 
8 1 4 4.075e-09 1.62219e-08 1.81568e-08 5.13917e-08 0 0 0 0.0025263 0.0145102 0.00119275 1.8091e-12 1.64754e-12 2.6998e-12 -1.33489e+06 -1.83149e+06 224363 
19 1 12 9.075e-09 6.48968e-09 6.37108e-09 4.49619e-08 0 0 0 0.00361443 -0.0103083 0.00381753 1.56985e-11 -5.83051e-12 -4.95687e-12 2.15024e+06 1.79418e+06 -288323 
5 1 2 3.075e-09 -2.00422e-08 2.9014e-08 4.19139e-08 0 0 0 0.0348283 0.000196664 0.0177753 -1.35627e-13 -1.03236e-12 3.05433e-12 1.68385e+07 -2.13219e+07 -1.33176e+07 
6 1 4 4.075e-09 -1.52046e-08 2.45015e-08 4.43476e-08 0 0 0 -0.0209304 -0.0335828 0.0496863 -1.64661e-12 -4.29474e-12 2.09872e-12 4.04448e+06 5.47408e+06 9.1837e+06 
9 1 5 4.575e-09 1.53341e-08 2.61756e-08 4.86182e-08 0 0 0 -0.00436804 0.0123746 -0.00864933 1.08467e-12 1.21682e-12 5.33498e-12 389768 -333841 3.4819e+06 
10 1 12 9.075e-09 4.57232e-09 2.21483e-08 5.5862e-08 0 0 0 -0.0066907 0.0124088 -0.0137725 -6.45172e-12 -2.49029e-12 -3.75356e-12 -1.22261e+06 -2.46922e+06 -204412 
13 1 10 7.575e-09 -1.49623e-09 3.50868e-08 6.43366e-08 0 0 0 -0.0228533 0.0102677 -0.014181 2.75555e-12 -1.93062e-12 1.04583e-12 -2.02486e+06 -1.25332e+06 718865 
14 1 4 4.075e-09 -1.20126e-08 3.30371e-08 6.86663e-08 0 0 0 -0.0256409 0.00970404 -0.0179162 1.03747e-12 -1.35443e-12 1.93493e-12 1.96594e+07 2.52326e+06 -7.72198e+06 
