ITEM: TIMESTEP
155000
ITEM: NUMBER OF ATOMS
31
ITEM: BOX BOUNDS mm mm ss
-8.47369e-08 8.47369e-08
-8.47369e-08 8.47369e-08
-2.01588e-11 6.72252e-08
ITEM: ATOMS id mol type radius x y z ix iy iz vx vy vz fx fy fz omegax omegay omegaz 
21 1 4 4.075e-09 -6.43158e-09 -3.23964e-08 2.10078e-08 0 0 0 -0.0205086 -0.107135 -0.0130184 -6.17397e-13 1.63078e-12 -2.21723e-13 -1.36835e+07 -6.97246e+06 -6.21626e+06 
23 1 6 5.075e-09 1.12871e-08 -2.48751e-08 2.20064e-08 0 0 0 0.0353007 -0.175082 -0.00694155 5.38998e-13 -9.45502e-13 -1.65411e-12 -1.54794e+06 -4.55146e+06 -1.42844e+07 
1 1 1 2.575e-09 -3.19004e-08 9.81134e-09 2.21192e-08 0 0 0 -0.161211 0.04754 0.0232244 2.51509e-12 7.25026e-13 5.87475e-13 -1.30751e+07 3.62558e+07 -1.68815e+07 
3 1 3 3.575e-09 -3.20506e-08 1.56284e-08 2.05067e-08 0 0 0 -0.14275 0.0454527 -0.00287931 -4.55375e-12 -1.70641e-12 2.8033e-12 1.98776e+06 -6.12345e+06 5.66267e+06 
30 1 9 6.575e-09 1.48999e-08 -4.72678e-08 4.31485e-08 0 0 0 0.140295 -0.105423 -0.13533 -2.05257e-12 2.37503e-12 6.47055e-14 7.03113e+06 3.31728e+07 -6.88773e+06 
29 1 2 3.075e-09 1.47187e-08 -4.37764e-08 3.42376e-08 0 0 0 -0.182836 -0.0443669 -0.105323 1.20922e-12 -1.6745e-12 -1.27344e-12 5.75263e+06 5.6681e+07 -1.50833e+07 
28 1 1 2.575e-09 9.56631e-09 -4.23046e-08 3.27487e-08 0 0 0 -0.236399 0.0449294 0.174237 -5.56738e-13 1.95291e-12 -4.17064e-13 -7.28838e+06 5.03303e+07 -1.98716e+07 
22 1 8 6.075e-09 1.95133e-09 -2.95497e-08 2.5738e-08 0 0 0 -0.0325161 -0.0575946 -0.0144039 2.23345e-12 -4.89059e-14 -2.7445e-13 -2.1728e+07 -7.72478e+06 -4.51572e+06 
27 1 8 6.075e-09 3.99231e-09 -3.63964e-08 3.54264e-08 0 0 0 -0.143551 0.142559 0.144808 3.41275e-12 -7.90502e-13 5.95176e-12 -1.90854e+07 -6.1397e+06 -6.82526e+06 
31 1 8 6.075e-09 7.66734e-09 -2.57436e-08 3.98381e-08 0 0 0 -0.100821 0.206034 -0.0588344 -3.46884e-12 1.87443e-12 -3.52461e-13 -2.21949e+07 -6.65447e+06 -6.7333e+06 
24 1 11 8.575e-09 -1.56015e-09 -1.71168e-08 3.25065e-08 0 0 0 -0.0226421 0.0918084 -0.279275 2.43552e-12 -2.95259e-12 4.2298e-12 -1.85976e+07 -4.75179e+06 -4.23435e+06 
17 1 7 5.575e-09 2.05041e-08 -1.47351e-09 2.24057e-08 0 0 0 0.326604 0.13329 -0.00218611 -1.08987e-12 -5.75683e-13 1.55839e-13 -1.92654e+07 -1.93154e+07 6.56653e+06 
25 1 4 4.075e-09 4.83949e-10 -4.71048e-09 3.19027e-08 0 0 0 0.0426231 0.0662179 -0.525641 -2.19057e-12 1.33651e-12 1.53218e-12 -2.26646e+07 -1.30686e+07 -6.57649e+06 
20 1 13 1.0075e-08 1.93249e-08 -6.94307e-09 4.02313e-08 0 0 0 -0.0229631 0.0184472 -0.497494 4.33837e-12 -3.00494e-12 4.58225e-13 1.91302e+06 2.32979e+06 -2.53204e+06 
4 1 2 3.075e-09 -2.84081e-08 2.06497e-08 2.26565e-08 0 0 0 -0.193215 0.0720641 0.0157966 -2.96983e-12 4.51869e-13 -1.36827e-12 2.79447e+07 3.98978e+07 2.32805e+07 
2 1 7 5.575e-09 -3.44409e-08 3.67826e-09 2.6672e-08 0 0 0 -0.0250269 0.0692662 0.136658 1.59453e-12 -4.12382e-12 4.78859e-12 -6.72719e+06 2.28009e+07 1.18628e+07 
7 1 8 6.075e-09 -1.33441e-08 1.41378e-08 3.40158e-08 0 0 0 0.025385 0.0634548 -0.493064 -6.62713e-12 -4.6286e-12 -1.09731e-11 8.09247e+06 -477181 5.41765e+06 
12 1 4 4.075e-09 -6.17671e-09 8.99218e-09 3.89134e-08 0 0 0 -0.00337518 0.0332648 -0.509879 -1.10643e-12 -3.11069e-12 2.37626e-12 6.11504e+06 -1.09526e+06 1.75629e+06 
6 1 4 4.075e-09 -1.68888e-08 2.02247e-08 2.67822e-08 0 0 0 -0.0628766 0.101706 -0.415704 -2.31272e-12 5.58964e-12 -1.23975e-12 -7.55157e+06 4.23406e+07 -3.13454e+07 
15 1 8 6.075e-09 1.51722e-08 8.73606e-09 2.38396e-08 0 0 0 0.229669 0.121952 -0.281449 6.90594e-13 -8.45447e-13 -8.59312e-13 -8.67534e+06 -3.09889e+07 5.01007e+06 
19 1 12 9.075e-09 6.27446e-09 6.38127e-09 3.57988e-08 0 0 0 0.0147723 0.0540557 -0.45756 5.04829e-12 9.12987e-12 5.50747e-12 1.15824e+07 -9.83263e+06 -635939 
8 1 4 4.075e-09 1.51083e-08 2.05241e-08 3.66741e-08 0 0 0 0.0160757 0.0294456 -0.466699 -1.62532e-13 1.94551e-12 9.15375e-13 -2.9134e+06 -2.59237e+06 -5.8616e+06 
16 1 5 4.575e-09 2.03701e-08 1.38561e-08 3.1441e-08 0 0 0 -0.0699113 0.233934 -0.150276 -1.72785e-12 2.13344e-13 5.08487e-14 -1.24514e+07 -4.00199e+07 7.92552e+06 
18 1 3 3.575e-09 2.61299e-08 1.26815e-08 3.69835e-08 0 0 0 -0.312196 0.33693 0.124397 -6.47589e-13 3.48726e-13 1.89733e-13 -2.38032e+06 -5.298e+07 1.33323e+07 
5 1 2 3.075e-09 -2.24545e-08 2.17189e-08 2.27255e-08 0 0 0 -0.216094 0.202439 -0.172606 -2.24002e-12 6.34436e-13 -5.43577e-13 4.35875e+07 3.4357e+07 2.07461e+07 
13 1 10 7.575e-09 -3.3964e-09 4.02427e-08 4.21479e-08 0 0 0 -0.0149502 1.28095e-05 -0.502228 -1.03952e-11 -7.07366e-12 -2.56652e-11 1.94493e+06 -233028 -702537 
9 1 5 4.575e-09 1.4042e-08 2.66962e-08 3.0882e-08 0 0 0 0.0130989 0.0332616 -0.469343 1.31951e-12 7.96682e-13 3.94624e-13 1.51598e+06 5.09193e+06 1.55684e+06 
10 1 12 9.075e-09 3.12916e-09 2.53192e-08 3.88687e-08 0 0 0 -0.00289384 -0.000225804 -0.496256 1.61066e-11 3.96498e-12 2.79854e-11 263408 3.08296e+06 141302 
32 1 2 3.075e-09 2.3452e-08 -4.89081e-08 4.71501e-08 0 0 0 0.287603 -0.222178 -0.498194 -2.1395e-13 -2.15113e-13 1.14946e-13 1.40031e+07 5.51029e+07 -1.45257e+07 
11 1 6 5.075e-09 -1.673e-09 1.37114e-08 4.51813e-08 0 0 0 -0.0354098 0.0228332 -0.495661 1.42611e-11 1.98704e-11 3.8645e-12 1.92461e+06 3.42299e+06 -1.82261e+06 
14 1 4 4.075e-09 -1.42346e-08 4.00709e-08 4.61524e-08 0 0 0 -0.0275039 0.0113706 -0.496659 1.49805e-12 1.14631e-12 -4.43618e-12 2.81858e+06 -4.60347e+06 1.07739e+06 
