ITEM: TIMESTEP
160000
ITEM: NUMBER OF ATOMS
31
ITEM: BOX BOUNDS mm mm ss
-8.47369e-08 8.47369e-08
-8.47369e-08 8.47369e-08
-2.01588e-11 6.72252e-08
ITEM: ATOMS id mol type radius x y z ix iy iz vx vy vz fx fy fz omegax omegay omegaz 
21 1 4 4.075e-09 -6.46975e-09 -3.26074e-08 2.10025e-08 0 0 0 -0.0048171 -0.0873237 0.00764012 -9.34702e-13 1.44143e-12 -1.42446e-13 -4.87683e+07 -1.00764e+07 -1.36291e+07 
23 1 6 5.075e-09 1.12977e-08 -2.51312e-08 2.19927e-08 0 0 0 -0.0157826 0.00140793 -0.00960395 5.84167e-12 2.74026e-13 1.18531e-13 -657399 -2.81579e+06 2.38252e+06 
1 1 1 2.575e-09 -3.23136e-08 1.00047e-08 2.21956e-08 0 0 0 -0.0710557 0.0691299 0.112732 2.06092e-12 7.2783e-13 -2.12659e-12 -1.93922e+07 -2.87047e+07 2.0823e+07 
3 1 3 3.575e-09 -3.25868e-08 1.57954e-08 2.05059e-08 0 0 0 -0.194846 0.0470048 0.0413189 -8.67982e-12 9.88959e-13 6.2344e-13 -3.86744e+06 3.77447e+07 2.04273e+07 
30 1 9 6.575e-09 1.51307e-08 -4.74054e-08 4.24087e-08 0 0 0 0.0344715 -0.0219531 -0.496714 3.99426e-13 5.90513e-13 6.74267e-13 579620 333651 -7.60436e+06 
29 1 2 3.075e-09 1.43738e-08 -4.37874e-08 3.35822e-08 0 0 0 -0.0884698 0.0519729 -0.454576 -9.15353e-13 -2.29092e-12 -1.1279e-12 2.28136e+07 5.30742e+07 -9.30098e+06 
28 1 1 2.575e-09 9.11199e-09 -4.21138e-08 3.29235e-08 0 0 0 -0.115848 0.118808 -0.0651691 -1.00763e-12 8.80553e-13 5.23658e-13 3.06882e+07 7.68216e+07 -9.24469e+06 
22 1 8 6.075e-09 1.8685e-09 -2.96156e-08 2.57211e-08 0 0 0 -0.0208557 0.00353174 -0.0185846 -1.55491e-12 7.40869e-13 -1.93183e-12 -1.22977e+07 -4.28135e+06 1.78751e+06 
27 1 8 6.075e-09 3.75226e-09 -3.60595e-08 3.57115e-08 0 0 0 -0.0393698 0.127151 0.0647168 3.88798e-13 5.79566e-13 -4.9014e-13 -1.14305e+07 -1.24401e+06 815662 
31 1 8 6.075e-09 7.4741e-09 -2.52525e-08 3.969e-08 0 0 0 -0.0507314 0.180274 -0.0693544 -6.14536e-13 1.25274e-12 8.79485e-13 -1.43275e+07 -1.42846e+06 156400 
24 1 11 8.575e-09 -1.63235e-09 -1.68874e-08 3.19164e-08 0 0 0 -0.0349194 0.0839017 -0.193393 5.90451e-14 -6.76822e-13 -3.5537e-12 -1.30563e+07 -827870 -1.2973e+06 
17 1 7 5.575e-09 2.12806e-08 -1.16637e-09 2.23968e-08 0 0 0 0.290144 0.116984 -0.00267853 2.12241e-12 -1.94796e-12 -1.23195e-12 -1.86621e+07 -2.29919e+07 8.14559e+06 
25 1 4 4.075e-09 5.32194e-10 -4.54773e-09 3.06974e-08 0 0 0 -0.00463458 0.0579771 -0.435523 -2.53763e-12 1.18341e-12 3.54177e-13 -3.27627e+07 148853 -6.78093e+06 
20 1 13 1.0075e-08 1.92782e-08 -6.90362e-09 3.89914e-08 0 0 0 -0.0147868 0.0140149 -0.495322 3.12433e-12 -5.76639e-12 -1.70919e-12 1.33851e+06 1.37824e+06 -3.13259e+06 
4 1 2 3.075e-09 -2.88364e-08 2.08515e-08 2.23696e-08 0 0 0 -0.161155 0.0870677 -0.133517 -3.22627e-12 3.42887e-12 -4.5657e-12 -1.40803e+07 2.66678e+07 -1.7709e+07 
2 1 7 5.575e-09 -3.46212e-08 3.92199e-09 2.69365e-08 0 0 0 -0.0515173 0.0716796 0.127079 2.91328e-12 -6.53816e-14 -2.401e-12 9.37167e+06 9.65389e+06 -2.05647e+06 
7 1 8 6.075e-09 -1.34127e-08 1.42501e-08 3.2854e-08 0 0 0 -0.0583938 0.0604873 -0.465675 -8.28954e-12 6.26373e-13 8.03812e-12 8.63166e+06 7.10752e+06 -4.51757e+06 
12 1 4 4.075e-09 -6.19211e-09 9.05562e-09 3.76202e-08 0 0 0 -0.0255538 0.0275822 -0.519236 4.50956e-12 -3.2772e-12 1.38935e-12 -74478.2 -4.70595e+06 6.94428e+06 
6 1 4 4.075e-09 -1.71347e-08 2.04308e-08 2.57913e-08 0 0 0 -0.108747 0.110674 -0.388298 5.22977e-12 1.09237e-12 -2.91884e-12 1.52284e+07 340069 1.9548e+07 
15 1 8 6.075e-09 1.57121e-08 8.99432e-09 2.31061e-08 0 0 0 0.205621 0.0910352 -0.306626 2.23047e-12 -1.26553e-12 -1.20829e-12 -9.64905e+06 -3.0271e+07 5.76617e+06 
19 1 12 9.075e-09 6.31022e-09 6.52922e-09 3.46459e-08 0 0 0 0.0180506 0.0597021 -0.466181 -4.66377e-12 5.86684e-12 -3.3526e-13 8.29199e+06 -6.97921e+06 -1.19504e+06 
8 1 4 4.075e-09 1.5082e-08 2.05455e-08 3.54364e-08 0 0 0 0.00524166 0.0360737 -0.46089 -1.76347e-12 3.916e-13 -2.10028e-12 -5.39804e+06 -3.13437e+06 -7.36451e+06 
16 1 5 4.575e-09 2.01486e-08 1.43951e-08 3.09904e-08 0 0 0 -0.102133 0.205614 -0.210591 1.53536e-12 -6.42474e-13 -1.95302e-12 -1.23602e+07 -4.14125e+07 6.49257e+06 
18 1 3 3.575e-09 2.526e-08 1.35304e-08 3.71872e-08 0 0 0 -0.383852 0.344196 0.0420176 3.61709e-13 1.84899e-13 -4.75607e-13 -2.04145e+07 -5.20976e+07 7.98372e+06 
5 1 2 3.075e-09 -2.2897e-08 2.19469e-08 2.20281e-08 0 0 0 -0.17473 0.0580039 -0.304913 1.52618e-12 -4.05347e-12 -4.02511e-13 -1.80546e+07 2.4509e+07 -7.0568e+06 
13 1 10 7.575e-09 -3.43332e-09 4.02564e-08 4.09021e-08 0 0 0 -0.0127382 0.00471712 -0.5093 -4.82619e-12 -6.63947e-12 -1.07227e-11 3.60429e+06 1.94177e+06 -916641 
9 1 5 4.575e-09 1.40148e-08 2.67166e-08 2.96433e-08 0 0 0 0.010481 0.033985 -0.472381 -2.65455e-12 -2.49671e-12 -2.90337e-12 -730463 2.3277e+06 1.34187e+06 
10 1 12 9.075e-09 3.09991e-09 2.53354e-08 3.76265e-08 0 0 0 -0.00114058 0.00893764 -0.485594 1.42913e-12 1.4092e-11 1.60012e-11 2.52272e+06 4.09928e+06 -828987 
32 1 2 3.075e-09 2.38842e-08 -4.92672e-08 4.58378e-08 0 0 0 0.0322869 -0.115777 -0.542107 3.25482e-13 7.7481e-13 -3.52016e-13 -4.03396e+06 1.60306e+07 -1.81587e+07 
11 1 6 5.075e-09 -1.70167e-09 1.37245e-08 4.39338e-08 0 0 0 -0.0243206 0.00887643 -0.497992 5.92796e-12 -4.16703e-12 1.50195e-12 -6.2797e+06 549498 9.7373e+06 
14 1 4 4.075e-09 -1.42731e-08 4.00785e-08 4.49024e-08 0 0 0 -0.00978324 -0.0093502 -0.497079 5.12616e-12 2.86017e-12 -1.31983e-12 -2.38373e+06 1.31145e+06 2.19986e+06 
