ITEM: TIMESTEP
165000
ITEM: NUMBER OF ATOMS
31
ITEM: BOX BOUNDS mm mm ss
-8.47369e-08 8.47369e-08
-8.47369e-08 8.47369e-08
-2.01588e-11 6.49497e-08
ITEM: ATOMS id mol type radius x y z ix iy iz vx vy vz fx fy fz omegax omegay omegaz 
21 1 4 4.075e-09 -6.49759e-09 -3.27848e-08 2.09989e-08 0 0 0 0.00930665 -0.0587065 -0.0199859 7.2392e-12 1.11442e-11 1.31055e-13 1.69567e+07 7.16135e+06 2.35206e+07 
3 1 3 3.575e-09 -3.34715e-08 1.57493e-08 2.05035e-08 0 0 0 -0.490252 -0.176321 0.00315403 -1.18706e-12 -2.17258e-12 7.31388e-13 1.20926e+07 2.45352e+07 8.30346e+06 
5 1 2 3.075e-09 -2.35989e-08 2.17584e-08 2.13316e-08 0 0 0 -0.427093 -0.233728 -0.197832 1.08526e-13 -2.03601e-12 4.09354e-13 1.85775e+07 3.52589e+07 2.36899e+07 
30 1 9 6.575e-09 1.51106e-08 -4.73568e-08 4.1167e-08 0 0 0 -0.0530157 0.0827904 -0.499408 4.98303e-12 1.39493e-12 -1.04206e-12 1.20222e+07 8.63742e+06 4.29565e+06 
29 1 2 3.075e-09 1.38304e-08 -4.34098e-08 3.25476e-08 0 0 0 -0.313606 0.267763 -0.376147 -1.77365e-12 -2.36663e-12 -6.54535e-13 4.15851e+07 7.10149e+07 -3.44272e+06 
23 1 6 5.075e-09 1.12764e-08 -2.52358e-08 2.19756e-08 0 0 0 -0.00808079 -0.034863 -0.00187078 1.09395e-12 5.56403e-13 -1.73876e-12 -1.70763e+07 -1.15125e+07 2.49578e+06 
28 1 1 2.575e-09 8.5857e-09 -4.16236e-08 3.30408e-08 0 0 0 -0.263813 0.287853 0.0990903 -1.07704e-12 1.78604e-13 3.43097e-13 3.84667e+07 7.98804e+07 -1.12134e+07 
22 1 8 6.075e-09 1.7714e-09 -2.95653e-08 2.56883e-08 0 0 0 -0.0485689 0.0552029 -0.0126154 6.46552e-12 5.5114e-12 1.82805e-12 -2.62934e+07 -1.31035e+07 -2.19352e+06 
27 1 8 6.075e-09 3.45285e-09 -3.54705e-08 3.60394e-08 0 0 0 -0.181113 0.329145 0.162023 3.29334e-12 -5.08726e-12 2.4955e-12 -2.40057e+07 -1.0844e+07 -2.89847e+06 
31 1 8 6.075e-09 7.21819e-09 -2.4486e-08 3.94554e-08 0 0 0 -0.185539 0.412736 -0.0887479 1.75875e-12 -3.94227e-12 2.42834e-13 -2.75426e+07 -1.19656e+07 -5.10185e+06 
24 1 11 8.575e-09 -1.68897e-09 -1.64763e-08 3.1097e-08 0 0 0 -0.0494826 0.22955 -0.407387 -1.2445e-13 -5.57075e-12 -1.10854e-11 -2.78506e+07 -9.40319e+06 -5.35007e+06 
25 1 4 4.075e-09 7.18212e-10 -4.28062e-09 2.91158e-08 0 0 0 0.0681009 0.152316 -0.697197 -1.81868e-12 4.66495e-13 -4.57678e-13 -2.31881e+07 -2.48362e+07 -1.16511e+07 
20 1 13 1.0075e-08 1.92395e-08 -6.89586e-09 3.77912e-08 0 0 0 -0.0316951 0.0228245 -0.485041 2.78329e-12 -2.02153e-12 1.64661e-12 2.22472e+06 2.76751e+06 2.59719e+06 
1 1 1 2.575e-09 -3.32197e-08 9.96613e-09 2.22223e-08 0 0 0 -0.576613 -0.177944 -0.020547 8.71202e-13 8.20118e-13 -8.65786e-13 -1.39483e+07 1.58519e+06 -5.90674e+07 
4 1 2 3.075e-09 -2.95116e-08 2.07362e-08 2.21002e-08 0 0 0 -0.409076 -0.228584 -0.0394154 -1.19322e-12 -1.03068e-12 -1.8378e-13 5.07652e+06 2.17354e+07 -2.82192e+07 
2 1 7 5.575e-09 -3.54187e-08 3.94097e-09 2.70867e-08 0 0 0 -0.825057 -0.0489231 0.0119703 5.26012e-12 4.28699e-12 -6.13561e-13 266071 2.36367e+06 -2.93301e+07 
7 1 8 6.075e-09 -1.37474e-08 1.37844e-08 3.15654e-08 0 0 0 -0.215426 -0.279754 -0.501683 2.99008e-12 2.52487e-12 -7.20527e-13 1.258e+07 2.03919e+06 9.96393e+06 
12 1 4 4.075e-09 -6.42353e-09 8.67989e-09 3.62707e-08 0 0 0 -0.152757 -0.221232 -0.532941 -8.94459e-13 9.52742e-13 1.82802e-13 1.28903e+07 -1.47801e+07 2.59545e+07 
6 1 4 4.075e-09 -1.7662e-08 2.0138e-08 2.47654e-08 0 0 0 -0.31361 -0.207992 -0.378258 -1.24185e-12 -2.96696e-12 -6.08383e-13 1.86082e+07 1.49929e+07 5.60878e+06 
11 1 6 5.075e-09 -2.3257e-09 1.35551e-08 4.26923e-08 0 0 0 -0.296952 -0.161553 -0.488403 3.69963e-12 -5.13951e-13 -6.30853e-14 -2.4106e+06 -413353 1.55433e+07 
15 1 8 6.075e-09 1.60921e-08 1.01292e-08 2.29145e-08 0 0 0 0.100619 0.469001 -0.00698633 1.06014e-12 3.51499e-12 -1.80172e-12 2.84501e+06 -2.86523e+06 1.70914e+07 
19 1 12 9.075e-09 6.27117e-09 6.62495e-09 3.37885e-08 0 0 0 -0.0629801 0.0366264 -0.298898 -3.30473e-12 -4.43499e-13 9.98454e-13 4.53714e+07 -2.63512e+07 8.11028e+06 
16 1 5 4.575e-09 1.97837e-08 1.58644e-08 3.09452e-08 0 0 0 -0.0773114 0.578954 0.00110836 1.39561e-13 1.84329e-12 1.10708e-12 -5.04162e+06 -5.64414e+06 3.13755e+07 
17 1 7 5.575e-09 2.28784e-08 7.1292e-10 2.24861e-08 0 0 0 0.263916 0.580617 -0.0165081 -3.14411e-12 -1.83417e-12 5.4429e-14 -673126 -3.24145e+06 1.83325e+07 
18 1 3 3.575e-09 2.47872e-08 1.55672e-08 3.72816e-08 0 0 0 -0.13328 0.747369 0.0520699 4.5467e-13 3.97864e-13 3.60347e-14 8.50615e+06 -1.53005e+07 3.58085e+07 
13 1 10 7.575e-09 -5.68974e-09 3.99371e-08 3.96676e-08 0 0 0 -0.400751 -0.153353 -0.516755 1.48854e-11 2.69813e-12 -1.0368e-11 -1.53408e+06 1.50876e+06 2.71233e+06 
8 1 4 4.075e-09 1.402e-08 2.14457e-08 3.42527e-08 0 0 0 -0.347344 -0.0802755 -0.464427 2.41294e-12 -4.58115e-13 -8.29534e-15 -2.04787e+06 -1.09297e+07 1.49704e+07 
9 1 5 4.575e-09 1.25567e-08 2.74944e-08 2.84174e-08 0 0 0 -0.369908 -0.108506 -0.487757 3.5965e-12 -2.64933e-12 1.22346e-12 -1.26749e+06 -6.96718e+06 9.81468e+06 
10 1 12 9.075e-09 1.73569e-09 2.54423e-08 3.63794e-08 0 0 0 -0.375038 -0.143404 -0.503654 1.9536e-11 -3.77159e-12 -3.64067e-12 -1.25293e+06 793153 1.31161e+06 
32 1 2 3.075e-09 2.39268e-08 -4.92415e-08 4.44183e-08 0 0 0 -0.0102102 0.0775812 -0.618133 -1.27127e-13 -1.05204e-13 6.18549e-13 -5.36906e+06 2.1515e+07 -3.64634e+06 
14 1 4 4.075e-09 -1.64927e-08 3.897e-08 4.36539e-08 0 0 0 -0.38655 -0.252849 -0.500867 2.85559e-12 8.01815e-13 2.06908e-13 -244881 730320 2.24242e+07 
