ITEM: TIMESTEP
170000
ITEM: NUMBER OF ATOMS
31
ITEM: BOX BOUNDS mm mm ss
-8.47369e-08 8.47369e-08
-8.47369e-08 8.47369e-08
-2.01588e-11 6.35539e-08
ITEM: ATOMS id mol type radius x y z ix iy iz vx vy vz fx fy fz omegax omegay omegaz 
21 1 4 4.075e-09 -6.56359e-09 -3.27461e-08 2.09888e-08 0 0 0 0.00063261 0.0135077 -0.00350575 1.27216e-11 1.22308e-11 7.00708e-13 -4.33086e+06 294838 2.67198e+06 
3 1 3 3.575e-09 -3.42147e-08 1.53854e-08 2.05012e-08 0 0 0 -0.490252 -0.235561 0.029698 -1.39184e-12 -3.36668e-12 4.07394e-12 -2.88293e+06 2.8115e+06 -2.95795e+07 
5 1 2 3.075e-09 -2.4398e-08 2.15734e-08 2.07289e-08 0 0 0 -0.504052 -0.0658683 -0.0576321 1.07668e-12 1.80159e-12 1.40452e-12 4.34496e+07 1.65125e+07 9.16548e+06 
30 1 9 6.575e-09 1.48407e-08 -4.70635e-08 3.99227e-08 0 0 0 -0.106018 0.12013 -0.500038 3.52125e-12 7.76818e-13 -7.5349e-13 1.79917e+07 1.64046e+07 -1.73747e+07 
29 1 2 3.075e-09 1.283e-08 -4.25564e-08 3.17305e-08 0 0 0 -0.297883 0.362851 -0.319979 -1.43146e-12 -2.19814e-12 -3.15865e-13 4.21169e+07 6.52434e+07 -9.9877e+06 
23 1 6 5.075e-09 1.14117e-08 -2.54941e-08 2.19689e-08 0 0 0 0.0259456 -0.020556 -0.0165526 -1.20456e-12 -2.21143e-13 -2.2722e-12 -1.56652e+06 -2.39872e+06 -7.71914e+06 
28 1 1 2.575e-09 7.81356e-09 -4.08119e-08 3.33911e-08 0 0 0 -0.171111 0.34874 0.0789404 -4.26104e-13 5.86173e-13 9.84316e-13 3.71544e+07 6.36369e+07 -1.0628e+07 
22 1 8 6.075e-09 1.67601e-09 -2.935e-08 2.56013e-08 0 0 0 -0.0177178 0.0974207 -0.0310479 5.4841e-13 -3.41433e-12 1.83529e-13 -2.80223e+07 -8.14831e+06 -3.11735e+06 
27 1 8 6.075e-09 2.94929e-09 -3.44585e-08 3.64227e-08 0 0 0 -0.100032 0.388979 0.109731 2.58582e-12 -3.36028e-13 2.04396e-12 -2.56036e+07 -6.27759e+06 -1.37136e+06 
31 1 8 6.075e-09 6.90807e-09 -2.33266e-08 3.90531e-08 0 0 0 -0.0891259 0.449952 -0.159763 1.5946e-12 -1.67548e-13 -1.01853e-12 -2.77783e+07 -9.7746e+06 -4.51215e+06 
24 1 11 8.575e-09 -1.62902e-09 -1.58135e-08 2.98869e-08 0 0 0 -0.0107449 0.224559 -0.422405 3.39633e-12 -1.8093e-12 7.81225e-13 -2.63381e+07 -5.13519e+06 -1.42331e+06 
25 1 4 4.075e-09 1.08156e-09 -3.81253e-09 2.72204e-08 0 0 0 0.0465966 0.156997 -0.67414 1.38656e-12 -2.86725e-13 -4.83556e-13 -1.30867e+07 -1.89947e+07 -4.80765e+06 
20 1 13 1.0075e-08 1.91654e-08 -6.84496e-09 3.65709e-08 0 0 0 -0.0527228 0.0137277 -0.483246 5.73496e-12 -5.83907e-12 -8.66409e-13 2.25586e+06 4.68925e+06 7.06289e+06 
1 1 1 2.575e-09 -3.37503e-08 9.60146e-09 2.21722e-08 0 0 0 -0.589356 -0.27671 -0.0125472 -6.3462e-13 7.56418e-14 -1.22521e-12 1.91756e+07 3.93467e+07 -2.9403e+06 
4 1 2 3.075e-09 -3.02213e-08 2.04093e-08 2.18829e-08 0 0 0 -0.465794 -0.230827 0.0104898 -3.64244e-13 -8.25444e-13 -1.92301e-12 1.56727e+07 2.25987e+07 3.14606e+07 
2 1 7 5.575e-09 -3.55845e-08 3.5508e-09 2.71547e-08 0 0 0 -0.541389 -0.345625 -0.038526 1.25208e-12 2.08396e-12 -2.80307e-12 694754 5.60223e+06 -6.32659e+06 
7 1 8 6.075e-09 -1.41319e-08 1.33115e-08 3.02236e-08 0 0 0 -0.248702 -0.220589 -0.462804 4.43426e-12 2.30792e-12 -5.72424e-13 2.75855e+07 4.72792e+06 1.66654e+07 
12 1 4 4.075e-09 -6.69038e-09 8.25811e-09 3.47972e-08 0 0 0 -0.143694 -0.181816 -0.588223 -7.58885e-13 5.23122e-14 3.00236e-13 3.46311e+07 -1.83873e+07 3.25725e+07 
6 1 4 4.075e-09 -1.8284e-08 1.99187e-08 2.38177e-08 0 0 0 -0.41927 -0.0905274 -0.221799 4.29322e-13 -6.49641e-13 6.91398e-13 3.66922e+07 1.27248e+07 2.09736e+07 
11 1 6 5.075e-09 -3.05514e-09 1.31655e-08 4.14671e-08 0 0 0 -0.328638 -0.199183 -0.472017 1.642e-12 -9.96359e-13 -1.67336e-13 2.02236e+06 -4.85262e+06 1.53237e+07 
15 1 8 6.075e-09 1.64375e-08 1.1253e-08 2.28888e-08 0 0 0 0.096969 0.312822 -0.0118789 4.68726e-12 4.01357e-12 -2.07545e-14 38906.2 -2.78849e+06 8.19957e+06 
19 1 12 9.075e-09 6.19822e-09 6.78477e-09 3.29676e-08 0 0 0 -0.0799845 0.0269916 -0.328973 3.87104e-12 3.17251e-12 -3.01614e-12 3.81701e+07 -2.67924e+07 1.31262e+06 
16 1 5 4.575e-09 1.97851e-08 1.71213e-08 3.0973e-08 0 0 0 0.00622876 0.319205 0.0189083 1.15169e-12 2.47897e-12 -4.41739e-13 7.41289e+06 122606 1.56519e+07 
17 1 7 5.575e-09 2.35574e-08 2.08537e-09 2.24785e-08 0 0 0 0.166618 0.362357 -0.00237887 1.57067e-12 4.43753e-12 -7.52115e-13 -873716 33091.7 6.9936e+06 
18 1 3 3.575e-09 2.46749e-08 1.71371e-08 3.74044e-08 0 0 0 0.0265989 0.285032 0.00116502 -9.4048e-13 2.78507e-13 1.31043e-12 9.36853e+06 9.24643e+06 -3.32605e+06 
13 1 10 7.575e-09 -7.53575e-09 3.94053e-08 3.85749e-08 0 0 0 -0.679777 -0.277023 -0.668999 -2.15932e-12 -3.25673e-12 3.07056e-11 -1.91456e+07 8.36253e+06 2.38917e+07 
8 1 4 4.075e-09 1.30703e-08 2.19493e-08 3.3465e-08 0 0 0 -0.308363 0.018574 -0.145902 9.29671e-13 1.93064e-12 -8.63646e-13 -8.59105e+06 -3.14089e+07 2.36631e+07 
9 1 5 4.575e-09 1.14307e-08 2.79201e-08 2.75965e-08 0 0 0 -0.270918 -0.06163 -0.237407 -5.41423e-13 2.39699e-12 2.06624e-12 -7.99008e+06 -2.66576e+07 1.84026e+07 
10 1 12 9.075e-09 5.32488e-10 2.52627e-08 3.52671e-08 0 0 0 -0.400061 -0.16882 -0.450508 4.85863e-13 5.85236e-12 1.43377e-11 -6.66939e+06 -1.7769e+07 1.32496e+07 
32 1 2 3.075e-09 2.38154e-08 -4.90893e-08 4.2606e-08 0 0 0 -0.0791392 -0.0997125 -0.756522 -1.40915e-14 6.26285e-14 -2.11767e-13 1.31871e+07 4.2068e+07 -2.4124e+07 
14 1 4 4.075e-09 -1.831e-08 3.77222e-08 4.23988e-08 0 0 0 -0.601964 -0.528135 -0.55287 -1.42945e-12 -1.91342e-12 6.46665e-13 -1.13341e+07 4.29318e+06 3.76507e+07 
