ITEM: TIMESTEP
175000
ITEM: NUMBER OF ATOMS
31
ITEM: BOX BOUNDS mm mm ss
-8.47369e-08 8.47369e-08
-8.47369e-08 8.47369e-08
-2.01588e-11 6.27029e-08
ITEM: ATOMS id mol type radius x y z ix iy iz vx vy vz fx fy fz omegax omegay omegaz 
3 1 3 3.575e-09 -3.49678e-08 1.47355e-08 2.04997e-08 0 0 0 -0.397917 -0.367763 0.0261685 2.37067e-12 -7.79712e-12 3.12757e-14 2.64146e+07 4.35276e+07 1.65327e+07 
5 1 2 3.075e-09 -2.53687e-08 2.12994e-08 2.0214e-08 0 0 0 -0.430746 -0.237257 -0.0654164 -4.06247e-13 -3.41773e-12 1.78633e-12 4.42462e+07 2.93925e+07 3.90398e+07 
30 1 9 6.575e-09 1.44103e-08 -4.66272e-08 3.86752e-08 0 0 0 -0.157316 0.149386 -0.497903 9.49746e-12 -4.40173e-12 9.61509e-13 2.32453e+07 2.38879e+07 -7.59438e+06 
32 1 2 3.075e-09 2.35669e-08 -4.88847e-08 4.03804e-08 0 0 0 -0.118981 0.0185947 -0.875761 4.57395e-13 8.88284e-13 1.28888e-12 1.50808e+07 6.14461e+07 -1.60707e+07 
21 1 4 4.075e-09 -6.63735e-09 -3.24558e-08 2.09823e-08 0 0 0 -0.00610665 0.000365986 -0.00396038 -1.51645e-11 -1.20363e-11 8.16663e-13 -1.24806e+06 76120.4 2.94617e+06 
29 1 2 3.075e-09 1.16632e-08 -4.1419e-08 3.11395e-08 0 0 0 -0.31245 0.402789 -0.261144 -5.43046e-13 -1.84716e-12 -1.35526e-13 4.11882e+07 3.97593e+07 -2.01943e+07 
23 1 6 5.075e-09 1.15791e-08 -2.56428e-08 2.19675e-08 0 0 0 0.0202465 -0.0301402 -0.0039947 4.22728e-12 -1.08688e-12 -3.18202e-12 -4.1862e+06 -3.477e+06 -9.42422e+06 
28 1 1 2.575e-09 7.02467e-09 -3.97817e-08 3.37459e-08 0 0 0 -0.167877 0.337859 0.0411614 6.106e-13 9.63536e-13 9.55797e-13 2.20422e+07 6.47089e+07 1.3654e+07 
22 1 8 6.075e-09 1.59516e-09 -2.8916e-08 2.54958e-08 0 0 0 -0.0238596 0.0844404 -0.0297239 1.0155e-11 2.74679e-12 7.4048e-12 -2.77941e+07 -8.09939e+06 -527585 
27 1 8 6.075e-09 2.42512e-09 -3.32027e-08 3.671e-08 0 0 0 -0.137018 0.348307 0.0688795 9.24025e-12 4.25949e-12 3.53614e-12 -1.81657e+07 -1.00171e+07 -5.6611e+06 
31 1 8 6.075e-09 6.62657e-09 -2.20092e-08 3.8591e-08 0 0 0 -0.116648 0.372502 -0.130507 -6.47357e-12 6.4857e-12 1.15198e-11 -2.40908e+07 -8.55879e+06 -4.13746e+06 
24 1 11 8.575e-09 -1.53402e-09 -1.5038e-08 2.86852e-08 0 0 0 -0.049639 0.151512 -0.349414 1.32713e-11 1.71895e-11 -8.35987e-12 -2.00521e+07 -6.3772e+06 1.16008e+06 
25 1 4 4.075e-09 1.41499e-09 -3.21847e-09 2.55063e-08 0 0 0 0.00574141 0.100207 -0.534125 4.72526e-12 -6.30406e-13 -3.87697e-12 -4.02853e+06 -1.06394e+07 -6.96415e+06 
20 1 13 1.0075e-08 1.89878e-08 -6.70676e-09 3.53149e-08 0 0 0 -0.0339559 -0.0153584 -0.480411 7.6062e-12 -2.1062e-11 -2.75365e-12 -657164 2.70368e+06 2.74976e+06 
1 1 1 2.575e-09 -3.41948e-08 8.94055e-09 2.20113e-08 0 0 0 -0.34706 -0.374918 -0.0472378 3.08725e-12 -4.68178e-13 -1.87074e-12 -1.92481e+07 2.92937e+07 -3.00538e+07 
4 1 2 3.075e-09 -3.10448e-08 1.98538e-08 2.17282e-08 0 0 0 -0.378134 -0.376847 0.016161 -1.24728e-12 -4.10208e-12 8.88515e-13 1.06092e+07 1.69822e+07 -8.45751e+06 
2 1 7 5.575e-09 -3.55984e-08 2.77492e-09 2.69929e-08 0 0 0 -0.236439 -0.328577 0.0376444 1.31882e-12 8.73872e-12 -5.18424e-12 -2.92256e+06 8.4222e+06 2.77764e+07 
7 1 8 6.075e-09 -1.45544e-08 1.2962e-08 2.89086e-08 0 0 0 -0.150348 -0.149904 -0.393625 5.57868e-12 5.19085e-12 1.32915e-12 -2.49228e+06 2.35795e+07 467325 
12 1 4 4.075e-09 -6.91895e-09 8.06284e-09 3.33276e-08 0 0 0 -0.0427794 -0.0813095 -0.488271 2.49611e-12 -1.48535e-12 -1.69905e-12 8.35739e+06 -5.87884e+06 2.23468e+07 
6 1 4 4.075e-09 -1.90561e-08 1.97376e-08 2.2929e-08 0 0 0 -0.314386 -0.149671 -0.274235 1.16554e-12 -2.87263e-12 -2.18394e-12 6.93998e+06 2.64962e+07 6.23341e+06 
11 1 6 5.075e-09 -3.76727e-09 1.2989e-08 4.02242e-08 0 0 0 -0.128714 -0.0393681 -0.471154 3.41407e-12 -3.54955e-12 -2.75331e-12 481594 1.59562e+06 2.22402e+07 
15 1 8 6.075e-09 1.67291e-08 1.24577e-08 2.2895e-08 0 0 0 0.0869487 0.316608 -0.0146052 3.42604e-12 5.11347e-12 -1.46543e-12 2.10669e+07 -2.22854e+07 1.50791e+07 
19 1 12 9.075e-09 6.09062e-09 7.08762e-09 3.20923e-08 0 0 0 -0.0350842 0.0129742 -0.359268 2.22709e-11 -2.06044e-11 -1.88603e-11 2.38021e+07 -1.22928e+07 -651278 
16 1 5 4.575e-09 1.93958e-08 1.8091e-08 3.13895e-08 0 0 0 -0.218942 0.171662 0.181488 -1.53329e-12 1.55591e-12 -6.66646e-13 3.61378e+07 -4.43775e+06 5.112e+07 
17 1 7 5.575e-09 2.42639e-08 3.62854e-09 2.24709e-08 0 0 0 0.196219 0.411376 -0.00845117 5.82201e-12 8.37395e-12 -2.89926e-13 1.41024e+06 -3.29386e+06 9.60685e+06 
18 1 3 3.575e-09 2.38654e-08 1.80013e-08 3.81191e-08 0 0 0 -0.270812 0.14021 0.215176 8.02976e-13 1.41763e-12 -1.58768e-12 8.26016e+07 -1.49666e+07 1.12585e+08 
13 1 10 7.575e-09 -9.24021e-09 3.91066e-08 3.73699e-08 0 0 0 -0.918333 -0.270448 -0.838897 1.51243e-11 -1.21613e-11 5.25739e-11 -1.37453e+07 -1.9056e+07 4.04915e+07 
10 1 12 9.075e-09 -6.84756e-10 2.525e-08 3.40756e-08 0 0 0 -0.321793 0.0108012 -0.466507 -2.34346e-11 -1.75291e-11 -2.0192e-11 -7.19932e+06 -2.90214e+07 3.18481e+07 
14 1 4 4.075e-09 -1.99288e-08 3.68478e-08 4.11374e-08 0 0 0 -0.822536 -0.845113 -0.910588 -5.55232e-12 -5.05165e-12 -1.68319e-11 -1.67614e+08 -3.22009e+07 1.3826e+08 
8 1 4 4.075e-09 1.19859e-08 2.24032e-08 3.2413e-08 0 0 0 -0.16791 0.422884 -0.0544904 -1.98748e-12 1.93541e-12 -1.25073e-11 -1.3998e+06 -3.79629e+07 4.00836e+07 
9 1 5 4.575e-09 1.01919e-08 2.83125e-08 2.65272e-08 0 0 0 -0.18336 0.335663 -0.136531 -1.26947e-11 1.54848e-12 -1.30102e-11 -3.50541e+06 -3.82267e+07 4.01572e+07 
