ITEM: TIMESTEP
180000
ITEM: NUMBER OF ATOMS
31
ITEM: BOX BOUNDS mm mm ss
-8.47369e-08 8.47369e-08
-8.47369e-08 8.47369e-08
-2.01588e-11 6.13609e-08
ITEM: ATOMS id mol type radius x y z ix iy iz vx vy vz fx fy fz omegax omegay omegaz 
5 1 2 3.075e-09 -2.63964e-08 2.08023e-08 2.00077e-08 0 0 0 -0.37362 -0.0390478 0.00346659 3.64536e-13 1.29958e-12 7.87665e-14 9.67814e+06 9.26149e+06 7.5285e+06 
30 1 9 6.575e-09 1.41302e-08 -4.63521e-08 3.74281e-08 0 0 0 -0.107761 0.101701 -0.499543 4.89339e-12 -3.1268e-12 -1.2299e-12 1.5224e+07 1.66918e+07 5.28506e+07 
32 1 2 3.075e-09 2.34096e-08 -4.85393e-08 3.84066e-08 0 0 0 0.0370168 0.606999 -0.744521 3.8081e-13 7.42419e-13 5.78998e-13 3.87789e+06 3.79127e+07 6.14971e+07 
21 1 4 4.075e-09 -6.71238e-09 -3.25744e-08 2.09355e-08 0 0 0 -0.0777583 0.00792196 -0.0389711 2.7358e-13 1.01467e-12 -6.50497e-13 -8.31728e+06 3.58105e+06 9.46638e+06 
29 1 2 3.075e-09 1.08164e-08 -4.0766e-08 3.04098e-08 0 0 0 -0.55486 0.0464303 -0.331894 -1.31408e-12 -1.75123e-12 8.51201e-13 -3.91704e+06 7.17742e+07 2.60694e+06 
23 1 6 5.075e-09 1.15989e-08 -2.57894e-08 2.19249e-08 0 0 0 -0.0299574 -0.00962562 -0.041274 -1.30012e-12 -1.34212e-12 -4.31163e-13 2.11336e+06 -7.98292e+06 -2.63177e+06 
28 1 1 2.575e-09 6.56095e-09 -3.93137e-08 3.36956e-08 0 0 0 -0.288752 0.140254 -0.0284549 -7.2692e-13 3.05482e-13 8.08738e-13 -3.43973e+07 8.08326e+07 -1.90737e+07 
22 1 8 6.075e-09 1.5048e-09 -2.8856e-08 2.53041e-08 0 0 0 -0.0756998 0.0783553 -0.129742 -3.01367e-13 2.85366e-12 -6.37216e-13 -1.79149e+07 -4.83341e+06 -9.3054e+06 
27 1 8 6.075e-09 2.19147e-09 -3.25994e-08 3.67054e-08 0 0 0 -0.0348839 0.32417 -0.0698539 -4.78616e-13 -3.9431e-13 -3.81684e-12 -3.15771e+07 2.22315e+07 -1.84672e+07 
31 1 8 6.075e-09 6.55556e-09 -2.13928e-08 3.79912e-08 0 0 0 0.164968 0.278652 -0.434129 -2.53067e-13 -1.84092e-12 1.70639e-13 -1.11211e+07 7.22176e+06 -1.38708e+07 
24 1 11 8.575e-09 -1.54452e-09 -1.4813e-08 2.77853e-08 0 0 0 0.124562 0.18855 -0.45267 6.25716e-12 5.66461e-12 2.22702e-12 -2.61114e+07 1.57885e+07 -1.40505e+07 
25 1 4 4.075e-09 1.48273e-09 -3.13244e-09 2.41761e-08 0 0 0 0.171055 0.126623 -0.672924 3.88223e-13 1.39908e-13 -3.46849e-13 998475 -9.31353e+06 9.21851e+06 
20 1 13 1.0075e-08 1.88868e-08 -6.62949e-09 3.40332e-08 0 0 0 -0.0100002 0.00832742 -0.487279 -5.34351e-13 7.8729e-12 1.39314e-12 1.51525e+06 1.2944e+06 336307 
3 1 3 3.575e-09 -3.57255e-08 1.38213e-08 2.0502e-08 0 0 0 -0.20108 -0.216352 -0.00601902 -1.23676e-12 -1.82051e-13 2.14334e-12 1.53723e+07 9.87058e+06 3.46532e+07 
1 1 1 2.575e-09 -3.46182e-08 8.00162e-09 2.16713e-08 0 0 0 0.0626122 -0.211335 -0.231033 3.22307e-13 1.28179e-12 -8.34084e-13 6.45352e+07 1.25634e+06 5.39196e+07 
4 1 2 3.075e-09 -3.19198e-08 1.9029e-08 2.17249e-08 0 0 0 -0.33437 -0.129338 0.0335265 -1.10424e-12 1.01322e-12 -7.78889e-13 1.26638e+07 8.56057e+06 1.8411e+07 
2 1 7 5.575e-09 -3.55709e-08 1.60328e-09 2.64622e-08 0 0 0 0.0298191 -0.369634 -0.450623 3.83919e-12 2.23314e-12 2.17082e-12 1.54628e+07 -2.15587e+07 -1.75225e+07 
7 1 8 6.075e-09 -1.49522e-08 1.26208e-08 2.79493e-08 0 0 0 -0.12252 -0.0454556 -0.364456 -1.90185e-12 -1.73533e-12 -8.3682e-12 2.38134e+07 9.25336e+06 1.49983e+07 
12 1 4 4.075e-09 -7.02546e-09 7.90323e-09 3.20397e-08 0 0 0 -0.0379346 -0.0356717 -0.51471 2.76128e-13 7.94407e-15 -1.01589e-12 7.9279e+06 7.11666e+06 3.53097e+06 
6 1 4 4.075e-09 -1.9899e-08 1.94148e-08 2.23556e-08 0 0 0 -0.317428 0.0122503 -0.122534 -1.38209e-12 -6.15411e-13 -8.73501e-13 2.79379e+07 1.90351e+07 2.11623e+07 
11 1 6 5.075e-09 -4.04655e-09 1.29175e-08 3.89499e-08 0 0 0 -0.0832429 -0.032387 -0.49604 -5.02436e-12 8.31308e-13 -1.27784e-12 -871436 -6.28789e+06 5.8607e+06 
15 1 8 6.075e-09 1.70789e-08 1.36732e-08 2.29326e-08 0 0 0 0.0883985 0.270065 -0.015763 -3.93906e-12 -4.97518e-12 -2.64957e-13 5.73084e+06 -6.93918e+06 7.1237e+06 
19 1 12 9.075e-09 6.00233e-09 7.19126e-09 3.08524e-08 0 0 0 -0.0118925 0.0285077 -0.369351 -8.06356e-12 -1.86574e-12 1.01156e-12 3.32023e+07 -2.18005e+07 4.23794e+06 
16 1 5 4.575e-09 1.75452e-08 1.73866e-08 3.2781e-08 0 0 0 -0.019405 0.208765 0.0114576 -2.40241e-12 -1.00695e-12 1.6599e-12 3.00533e+06 -1.57624e+07 -5.92503e+06 
17 1 7 5.575e-09 2.53551e-08 5.53789e-09 2.24559e-08 0 0 0 0.148754 0.334608 -0.00196608 -2.44587e-12 -1.05487e-12 6.14557e-14 1.99846e+06 -3.19339e+06 7.11288e+06 
18 1 3 3.575e-09 2.0354e-08 1.56285e-08 4.0149e-08 0 0 0 -0.163411 0.169875 0.0583182 7.02012e-13 2.1309e-13 7.90562e-13 4.10655e+07 -4.14769e+07 9.08063e+07 
13 1 10 7.575e-09 -1.06094e-08 3.88215e-08 3.60761e-08 0 0 0 -0.0503678 -0.00731999 -0.405908 -4.85434e-12 6.00152e-12 -8.65067e-12 6.7501e+06 -7.31049e+06 -2.26623e+06 
10 1 12 9.075e-09 -1.57309e-09 2.52847e-08 3.27377e-08 0 0 0 -0.0601898 -0.0056301 -0.439441 -1.06476e-12 4.76707e-12 9.89989e-12 5.74124e+06 -5.8622e+06 -1.45581e+06 
14 1 4 4.075e-09 -2.11352e-08 3.5976e-08 3.99027e-08 0 0 0 -0.0715563 -0.0376382 -0.489693 4.86265e-13 -3.86473e-13 -1.1295e-12 5.14337e+06 -3.77358e+06 6.00881e+06 
8 1 4 4.075e-09 1.11895e-08 2.29438e-08 3.09607e-08 0 0 0 -0.0424497 0.0258051 -0.34163 -2.34646e-13 1.31068e-13 4.48431e-12 -787998 -1.31705e+07 8.34415e+06 
9 1 5 4.575e-09 9.09055e-09 2.87351e-08 2.50591e-08 0 0 0 -0.0125125 0.014163 -0.363178 1.97721e-12 1.01847e-12 3.51508e-12 -73132.1 -5.69749e+06 716856 
