ITEM: TIMESTEP
20000
ITEM: NUMBER OF ATOMS
31
ITEM: BOX BOUNDS mm mm ss
-8.47369e-08 8.47369e-08
-8.47369e-08 8.47369e-08
-2.01588e-11 1.01183e-07
ITEM: ATOMS id mol type radius x y z ix iy iz vx vy vz fx fy fz omegax omegay omegaz 
30 1 9 6.575e-09 1.23818e-08 -4.69058e-08 3.29523e-08 0 0 0 0.0198145 -0.00533472 0.0208907 9.72214e-12 -1.5478e-12 -3.89677e-12 -7.98924e+06 -6.18553e+06 -5.77295e+06 
32 1 2 3.075e-09 2.11018e-08 -4.99182e-08 3.55479e-08 0 0 0 0.0200786 0.0450381 0.0783903 -1.63965e-12 -4.24195e-12 4.41777e-12 2.72983e+06 2.04018e+06 1.857e+07 
21 1 4 4.075e-09 -1.0311e-08 -2.52876e-08 2.10648e-08 0 0 0 -0.0230339 0.0530154 -0.000323909 3.41377e-12 1.36511e-11 -7.22406e-13 2.82141e+07 4.03896e+06 226441 
22 1 8 6.075e-09 -1.22531e-09 -2.46134e-08 2.52794e-08 0 0 0 0.000659234 0.00560512 0.00308707 -2.03062e-12 1.04996e-11 2.99722e-12 2.66037e+06 2.05707e+06 115509 
27 1 8 6.075e-09 1.67411e-09 -3.42765e-08 3.18353e-08 0 0 0 0.00503231 0.00110824 -0.0207754 -2.32356e-11 -1.14895e-11 -2.19412e-11 -7.40899e+06 1.88732e+06 6.497e+06 
28 1 1 2.575e-09 6.67086e-09 -3.84145e-08 2.62631e-08 0 0 0 0.0366711 -0.00148444 0.00468583 -1.10665e-12 7.3998e-13 -1.49786e-12 -7.2012e+06 -2.16607e+07 -5.51236e+06 
29 1 2 3.075e-09 1.18138e-08 -4.04942e-08 2.58666e-08 0 0 0 0.0282543 -0.0232868 0.00862672 1.17461e-12 -2.995e-13 -2.31e-12 3.37821e+06 2.18093e+07 -222605 
31 1 8 6.075e-09 6.10943e-09 -2.56681e-08 3.91043e-08 0 0 0 0.0246677 0.0154431 -0.0173066 2.55575e-12 -5.16957e-12 5.55281e-12 -3.04117e+06 1.56036e+06 3.52476e+06 
24 1 11 8.575e-09 -3.42835e-09 -1.50276e-08 3.60389e-08 0 0 0 -0.00715626 -0.00561723 0.000101655 1.09685e-11 -4.48551e-13 1.34119e-11 -469235 1.52281e+06 2.05726e+06 
25 1 4 4.075e-09 -5.55168e-10 -3.31244e-09 3.96411e-08 0 0 0 0.00729416 -0.012757 -0.00932439 -5.40031e-12 1.85301e-12 3.78266e-13 1.31314e+06 796674 -1.09954e+06 
23 1 6 5.075e-09 7.7707e-09 -1.88691e-08 2.22763e-08 0 0 0 -0.00306072 -0.0113577 -0.00158709 2.31496e-12 -1.70746e-12 2.81562e-12 3.55798e+06 4.37876e+06 -812678 
2 1 7 5.575e-09 -3.42731e-08 1.64118e-08 3.1982e-08 0 0 0 0.0211222 0.00422387 -0.0299458 -4.8568e-14 -2.74527e-12 -4.66527e-12 454286 -1.85986e+06 -308645 
15 1 8 6.075e-09 1.29808e-08 1.17881e-08 3.24139e-08 0 0 0 -0.0135267 -0.000434603 -0.000167248 3.3826e-12 9.05521e-13 -1.17877e-12 885063 1.56232e+06 -603231 
16 1 5 4.575e-09 2.0914e-08 1.27405e-08 3.92821e-08 0 0 0 -0.000375719 -0.0104997 -0.016258 5.15546e-13 1.24547e-12 1.04412e-12 597351 1.72069e+06 -1.34783e+06 
17 1 7 5.575e-09 1.71276e-08 4.30352e-09 2.456e-08 0 0 0 -0.0140239 -0.0023515 0.0048211 -4.99216e-13 -1.5143e-12 9.16451e-13 206841 -2.80851e+06 636060 
18 1 3 3.575e-09 2.82963e-08 9.4857e-09 3.97101e-08 0 0 0 -0.00116321 -0.00769425 -0.00245633 4.97004e-13 -4.00521e-14 -1.57792e-13 -3.40494e+06 -4.63092e+06 2.11585e+06 
1 1 1 2.575e-09 -3.063e-08 2.3585e-08 3.22497e-08 0 0 0 0.0251718 0.00338472 -0.00113273 1.68024e-13 1.56102e-12 8.07635e-13 1.28715e+06 -1.20354e+07 1330.52 
3 1 3 3.575e-09 -2.97182e-08 2.85071e-08 3.56266e-08 0 0 0 0.00743862 -0.000697277 0.0116481 -9.83391e-13 -6.48387e-13 1.99378e-12 6.3078e+06 2.3286e+07 1.62362e+07 
20 1 13 1.0075e-08 1.92075e-08 -7.85628e-09 4.68063e-08 0 0 0 -0.0139228 0.00643439 0.00020164 -5.50833e-13 1.63773e-11 1.14294e-11 1.33268e+06 1.08856e+06 -440880 
7 1 8 6.075e-09 -1.23029e-08 1.5646e-08 4.82423e-08 0 0 0 0.0305289 -0.0121964 0.01067 6.21208e-12 2.67161e-13 -8.84556e-13 1.17816e+06 -7.22607e+06 1.75595e+06 
11 1 6 5.075e-09 -2.422e-10 9.03762e-09 5.74596e-08 0 0 0 -0.0208976 0.0147832 0.0215102 -7.95712e-12 -2.6132e-12 -6.50554e-12 7.93794e+06 1.37282e+07 -7.09103e+06 
12 1 4 4.075e-09 -5.39677e-09 8.50837e-09 5.00373e-08 0 0 0 0.00321884 0.00692597 0.0254876 -2.2286e-12 4.2521e-12 -2.63415e-12 -5.41017e+06 -46117 953168 
8 1 4 4.075e-09 1.6222e-08 1.81616e-08 5.13958e-08 0 0 0 0.00436239 -0.00689209 0.00941752 1.53931e-12 2.22878e-12 2.1462e-12 -1.08101e+06 -397427 -1.1195e+06 
19 1 12 9.075e-09 6.4921e-09 6.3743e-09 4.49594e-08 0 0 0 -0.0054256 -0.0141461 -0.00302688 1.8078e-13 -1.59975e-11 -1.0082e-11 116215 113597 -387972 
4 1 2 3.075e-09 -2.59587e-08 2.97447e-08 4.08656e-08 0 0 0 0.0466598 -0.00365236 -0.0198712 1.273e-12 1.27554e-12 -1.59394e-12 1.71136e+07 -3.54719e+06 1.07156e+07 
5 1 2 3.075e-09 -2.0047e-08 2.90122e-08 4.19206e-08 0 0 0 0.0245582 0.00483993 0.0773485 5.53063e-13 4.56182e-13 3.55795e-12 3.38067e+07 -3.40427e+07 1.23181e+06 
6 1 4 4.075e-09 -1.5208e-08 2.44997e-08 4.43513e-08 0 0 0 0.0102542 -0.0282628 0.0126522 -1.67185e-12 -4.52873e-12 1.58744e-12 -4.81659e+06 2.32915e+07 -7.58923e+06 
9 1 5 4.575e-09 1.53323e-08 2.61792e-08 4.86194e-08 0 0 0 0.0125134 -0.00888187 0.00147678 2.16001e-12 2.8208e-13 2.76746e-12 -1.10833e+06 -609551 -1.16327e+06 
10 1 12 9.075e-09 4.5689e-09 2.21501e-08 5.58598e-08 0 0 0 0.0012641 0.00661242 -0.00700769 -7.10589e-13 -3.14008e-12 3.34476e-12 -989488 -864232 -721898 
13 1 10 7.575e-09 -1.50623e-09 3.50882e-08 6.43303e-08 0 0 0 -0.000179499 0.00553098 -0.00135169 1.30524e-12 9.60394e-13 -7.11755e-13 -3.11977e+06 3.42475e+06 2.53967e+06 
14 1 4 4.075e-09 -1.20235e-08 3.30343e-08 6.86561e-08 0 0 0 0.0216802 -0.00705755 0.0485836 1.26656e-13 -4.23429e-13 -3.86745e-13 1.35365e+07 6.38611e+06 -4.19785e+06 
