ITEM: TIMESTEP
200000
ITEM: NUMBER OF ATOMS
31
ITEM: BOX BOUNDS mm mm ss
-8.47369e-08 8.47369e-08
-8.47369e-08 8.47369e-08
-2.01588e-11 6.51197e-08
ITEM: ATOMS id mol type radius x y z ix iy iz vx vy vz fx fy fz omegax omegay omegaz 
21 1 4 4.075e-09 -6.27758e-09 -3.24713e-08 2.10031e-08 0 0 0 0.154242 0.0325109 0.00255386 8.63138e-13 2.09012e-12 -5.22559e-13 2.42378e+07 -7.21964e+06 4.58094e+06 
5 1 2 3.075e-09 -2.49474e-08 1.9976e-08 2.16769e-08 0 0 0 0.185933 0.00428752 0.299296 1.96281e-13 -1.26361e-13 -3.84405e-13 7.63832e+06 -2.65628e+07 8.77349e+06 
3 1 3 3.575e-09 -3.39012e-08 1.24883e-08 2.05079e-08 0 0 0 0.280437 -0.0746819 0.00962538 2.89316e-12 1.20312e-12 -1.35892e-13 7.7913e+06 -2.28364e+07 7.44631e+06 
1 1 1 2.575e-09 -3.25561e-08 6.65108e-09 2.12689e-08 0 0 0 0.329123 -0.0718439 -0.0336635 -6.12523e-13 1.65236e-12 -6.57163e-13 2.04826e+07 -2.90823e+07 1.73415e+07 
30 1 9 6.575e-09 1.50515e-08 -4.78307e-08 4.19028e-08 0 0 0 -0.107683 -0.0143946 0.499388 1.36231e-12 8.93408e-14 -4.12848e-13 -3.05995e+07 -2.0563e+07 -1.56524e+07 
29 1 2 3.075e-09 1.31127e-08 -4.30072e-08 3.38662e-08 0 0 0 0.195658 -0.26417 0.276675 -1.98905e-12 -1.53178e-12 1.60647e-14 -4.52494e+07 -3.95246e+07 -2.55205e+07 
32 1 2 3.075e-09 2.4227e-08 -5.03409e-08 4.30677e-08 0 0 0 -0.18464 -0.148793 0.813276 1.48145e-13 4.95945e-13 2.12746e-13 -6.85091e+07 -2.68038e+07 -2.96019e+07 
23 1 6 5.075e-09 1.19228e-08 -2.59397e-08 2.20046e-08 0 0 0 0.0849999 0.112181 -0.00217688 -7.30027e-13 -1.08151e-12 2.60607e-12 1.28443e+07 1.15527e+07 5.02634e+06 
28 1 1 2.575e-09 7.88925e-09 -4.1108e-08 3.40764e-08 0 0 0 0.233994 -0.135276 -0.00240022 -8.33226e-13 6.67246e-13 1.43991e-13 -2.69695e+07 -3.84189e+07 -1.91682e+07 
22 1 8 6.075e-09 1.97809e-09 -2.91892e-08 2.56748e-08 0 0 0 0.144058 0.00929468 0.0594479 3.66635e-12 7.85888e-12 1.43289e-12 1.99361e+07 3.67571e+06 625402 
27 1 8 6.075e-09 2.89883e-09 -3.45646e-08 3.64081e-08 0 0 0 0.22562 -0.137252 -0.0271468 -3.45489e-12 -6.55555e-12 -8.59944e-12 1.46029e+07 2.46923e+06 4.52689e+06 
31 1 8 6.075e-09 7.058e-09 -2.36153e-08 3.94351e-08 0 0 0 0.17162 -0.158161 0.112953 3.80346e-12 7.55364e-13 6.54417e-12 1.57679e+07 4.42847e+06 6.41012e+06 
24 1 11 8.575e-09 -1.26898e-09 -1.5761e-08 3.03686e-08 0 0 0 0.0931664 -0.0717887 0.255824 -3.76865e-12 -1.27262e-12 1.07312e-12 1.36174e+07 3.42703e+06 4.77933e+06 
25 1 4 4.075e-09 1.30649e-09 -3.54311e-09 2.87558e-08 0 0 0 0.0301376 -0.0341599 0.44343 3.13297e-12 -2.06847e-12 -1.23293e-12 2.00757e+07 5.12802e+06 6.93738e+06 
20 1 13 1.0075e-08 1.89585e-08 -6.72649e-09 3.84316e-08 0 0 0 0.0346296 -0.0377281 0.497444 1.28248e-13 4.104e-12 2.62963e-12 -3.8337e+06 -3.51126e+06 154597 
4 1 2 3.075e-09 -3.05396e-08 1.77919e-08 2.24259e-08 0 0 0 0.19342 -0.0706265 0.149444 1.81584e-12 -1.12468e-12 4.19496e-12 1.34451e+07 -1.80344e+07 1.23705e+07 
2 1 7 5.575e-09 -3.35368e-08 -4.95588e-11 2.56207e-08 0 0 0 0.315307 -0.144132 -0.145491 -8.62351e-14 -4.34864e-13 -2.75347e-12 7.85686e+06 -1.57686e+07 5.48629e+06 
7 1 8 6.075e-09 -1.42105e-08 1.29669e-08 3.15803e-08 0 0 0 0.0778499 0.0026176 0.452479 3.11445e-12 3.75174e-12 4.19246e-12 -1.05386e+06 -6.14868e+06 -1.17168e+06 
12 1 4 4.075e-09 -6.42511e-09 8.52854e-09 3.6222e-08 0 0 0 0.0654995 -0.00303908 0.484611 3.26857e-12 4.69201e-12 -4.02116e-13 -879587 -2.3458e+06 -1.37763e+06 
6 1 4 4.075e-09 -1.88281e-08 1.91606e-08 2.50787e-08 0 0 0 0.1284 0.0143064 0.415594 -1.02366e-12 -3.46686e-12 4.95942e-13 1.54228e+06 -1.69111e+07 2.49727e+06 
11 1 6 5.075e-09 -3.69586e-09 1.33142e-08 4.34018e-08 0 0 0 0.073363 -0.0290064 0.506072 -4.13522e-12 7.69285e-12 -5.56904e-13 1.41712e+06 -7.29516e+06 -112178 
15 1 8 6.075e-09 1.67112e-08 1.27704e-08 2.4624e-08 0 0 0 -0.0376198 -0.0897269 0.324078 -1.6886e-13 -3.78201e-13 1.34115e-12 1.0455e+07 2.12511e+07 -1.0149e+07 
19 1 12 9.075e-09 6.45783e-09 7.18961e-09 3.4236e-08 0 0 0 0.0436452 -0.0405187 0.440926 -1.32953e-12 -1.07639e-11 -4.59904e-12 -6.3483e+06 4.36186e+06 -913440 
16 1 5 4.575e-09 1.83087e-08 1.52436e-08 3.47403e-08 0 0 0 0.238482 -0.232854 0.314407 -1.8512e-13 1.02957e-12 7.57775e-14 1.43321e+07 2.83058e+07 -1.3521e+07 
18 1 3 3.575e-09 2.20338e-08 1.23234e-08 4.12873e-08 0 0 0 0.403285 -0.399551 0.145949 -2.60176e-14 1.74959e-13 8.54835e-14 1.92319e+07 3.59402e+07 -1.72532e+07 
17 1 7 5.575e-09 2.49206e-08 4.84045e-09 2.24773e-08 0 0 0 -0.173633 -0.144707 0.00159322 -3.12904e-14 7.26337e-13 -2.83678e-13 2.75807e+07 2.05297e+07 -1.31773e+07 
13 1 10 7.575e-09 -1.00999e-08 3.93796e-08 4.09063e-08 0 0 0 0.111738 -0.0128362 0.501281 5.76243e-13 -1.56366e-12 7.49544e-12 -976363 -1.13064e+06 -2.79506e+06 
10 1 12 9.075e-09 -9.69905e-10 2.58734e-08 3.7701e-08 0 0 0 0.0915863 -0.0288707 0.516894 -4.27999e-12 -5.57599e-12 -1.57972e-11 1.10264e+06 -2.62797e+06 -2.45643e+06 
8 1 4 4.075e-09 1.18486e-08 2.35833e-08 3.63018e-08 0 0 0 0.0877733 -0.0581206 0.531456 1.03558e-12 5.59236e-13 -6.31528e-13 -617195 -2.75522e+06 -1.49584e+06 
9 1 5 4.575e-09 9.92486e-09 2.94447e-08 3.04099e-08 0 0 0 0.103965 -0.0555757 0.525728 -1.03953e-12 -8.82585e-13 8.0336e-13 353243 -1.07925e+06 1.46542e+06 
14 1 4 4.075e-09 -2.07235e-08 3.64396e-08 4.43756e-08 0 0 0 0.0991326 0.0262441 0.49827 -4.90665e-13 2.00966e-12 3.06902e-12 -1.07714e+06 -2.12782e+06 -859318 
