ITEM: TIMESTEP
250000
ITEM: NUMBER OF ATOMS
31
ITEM: BOX BOUNDS mm mm ss
-8.47369e-08 8.47369e-08
-8.47369e-08 8.47369e-08
-2.01588e-11 7.72282e-08
ITEM: ATOMS id mol type radius x y z ix iy iz vx vy vz fx fy fz omegax omegay omegaz 
21 1 4 4.075e-09 -5.35285e-09 -3.20219e-08 2.30505e-08 0 0 0 -0.0148768 -0.0197577 0.0603018 6.19032e-13 -1.39628e-11 3.58912e-12 3.13913e+06 2.07742e+06 -2.78901e+06 
23 1 6 5.075e-09 1.1739e-08 -2.34886e-08 2.46712e-08 0 0 0 -0.0178942 -0.0140752 0.0263579 -4.3332e-12 1.25326e-12 -5.18073e-12 1.17057e+06 -1.41909e+06 -1.9303e+06 
2 1 7 5.575e-09 -3.03112e-08 -7.98878e-10 2.3903e-08 0 0 0 0.0280021 0.069499 -0.0904434 1.95168e-12 -1.90534e-12 -9.85296e-13 5.00128e+06 -1.05909e+06 2.46257e+06 
3 1 3 3.575e-09 -2.97165e-08 1.22932e-08 2.0518e-08 0 0 0 0.0201317 0.0617105 -0.00196664 -8.50067e-13 1.06827e-12 -6.83322e-13 7.53498e+06 6.04309e+06 8.87158e+06 
1 1 1 2.575e-09 -2.82865e-08 6.45075e-09 2.10495e-08 0 0 0 0.05266 0.0716662 -0.0457101 5.87163e-13 1.66379e-12 -1.03192e-13 4.516e+06 -1.01903e+07 -2.33361e+06 
4 1 2 3.075e-09 -2.80752e-08 1.7356e-08 2.43633e-08 0 0 0 0.00758449 0.0555412 0.0119608 -2.06995e-12 -2.36308e-13 -8.40067e-13 4.82926e+06 -363604 2.90809e+06 
17 1 7 5.575e-09 1.85543e-08 1.96993e-10 2.25177e-08 0 0 0 -0.0333556 -0.00479903 -0.00794513 4.98696e-13 -2.00384e-13 3.03355e-13 1.15075e+06 740614 307653 
30 1 9 6.575e-09 1.68759e-08 -4.74057e-08 4.35203e-08 0 0 0 0.0365629 0.0141796 0.00694718 2.88402e-12 -1.52499e-12 -3.03647e-12 -444048 4.06878e+06 2.67261e+06 
29 1 2 3.075e-09 1.69125e-08 -4.30206e-08 3.50111e-08 0 0 0 0.00452364 0.0183446 0.0152627 -8.65652e-12 3.58215e-12 4.05539e-12 5.37241e+06 3.40582e+07 -2.73451e+06 
32 1 2 3.075e-09 2.53006e-08 -4.88744e-08 4.78464e-08 0 0 0 0.0483511 0.019821 -0.0204494 2.16421e-13 1.88714e-12 -3.52316e-13 -4.89661e+06 -2.73429e+06 -1.79893e+06 
28 1 1 2.575e-09 1.17147e-08 -4.19523e-08 3.33455e-08 0 0 0 0.0118427 -0.0109383 0.0543734 -1.44532e-12 -1.11542e-13 2.66312e-12 -3.80414e+06 -1.58865e+07 6.19221e+06 
22 1 8 6.075e-09 2.88986e-09 -2.92452e-08 2.80618e-08 0 0 0 -0.0199736 -0.0217487 0.031484 -3.81881e-12 -1.37065e-11 -3.68692e-12 -3.07517e+06 1.6698e+06 2.25154e+06 
27 1 8 6.075e-09 5.62749e-09 -3.70448e-08 3.68109e-08 0 0 0 0.0237873 -0.0160016 0.0408491 2.69498e-11 1.49083e-11 2.24041e-11 2.15748e+06 1.17413e+06 328335 
31 1 8 6.075e-09 8.7498e-09 -2.67759e-08 4.24037e-08 0 0 0 0.00494336 -0.0143153 0.0235104 -9.47847e-12 3.19735e-12 -8.00484e-12 -72146.9 1.88018e+06 1.82519e+06 
24 1 11 8.575e-09 -1.06033e-09 -1.78569e-08 3.62725e-08 0 0 0 -0.00645096 -0.0185039 0.0401811 -2.85368e-12 4.92833e-12 -1.12688e-11 120355 1.74246e+06 810817 
25 1 4 4.075e-09 3.47371e-10 -5.35886e-09 3.68122e-08 0 0 0 -0.0220328 -0.0137274 0.0325118 -4.28982e-13 7.25054e-13 -2.08869e-12 408168 2.0556e+06 679682 
20 1 13 1.0075e-08 1.90666e-08 -6.36068e-09 4.57304e-08 0 0 0 -0.00101939 -0.0167371 0.00645544 1.47728e-12 -5.38893e-12 -1.34608e-13 175983 1.55468e+06 -155158 
5 1 2 3.075e-09 -2.28878e-08 1.97535e-08 2.6348e-08 0 0 0 -0.00169612 0.0480454 0.0624849 -3.89911e-12 -3.18047e-13 2.4068e-12 1.18482e+07 -1.23968e+07 1.97875e+06 
7 1 8 6.075e-09 -1.43662e-08 1.26963e-08 3.8479e-08 0 0 0 0.009339 -0.0143089 0.0526538 -2.94704e-12 -4.56782e-12 -1.834e-12 3.48525e+06 -94158.7 -2.099e+06 
12 1 4 4.075e-09 -6.84142e-09 8.03769e-09 4.33299e-08 0 0 0 0.0133544 -0.0338708 0.0470983 3.67114e-12 1.60923e-12 -7.55448e-13 1.13872e+07 6.71318e+06 -5.74774e+06 
6 1 4 4.075e-09 -1.80203e-08 1.88645e-08 3.13682e-08 0 0 0 -0.013401 0.0139397 0.0771219 5.24078e-12 3.98905e-12 -4.19651e-12 5.49159e+06 3.31521e+06 1.6957e+06 
11 1 6 5.075e-09 -3.3271e-09 1.23407e-08 5.04764e-08 0 0 0 0.0197453 -0.0448318 0.0635678 9.42789e-12 -5.93201e-13 6.49899e-12 -3.24833e+06 -8.86435e+06 8.61089e+06 
15 1 8 6.075e-09 1.29132e-08 9.24952e-09 2.71136e-08 0 0 0 -0.0158316 -0.0049511 0.0236197 -2.8858e-12 -1.03672e-12 -7.75879e-14 2.20976e+06 3.36882e+06 -1.86862e+06 
19 1 12 9.075e-09 5.70335e-09 6.15778e-09 4.00464e-08 0 0 0 -0.00765866 -0.0167024 0.0298968 6.21424e-13 3.80673e-12 6.18174e-12 863799 708585 29886.3 
16 1 5 4.575e-09 1.94732e-08 1.32462e-08 3.43248e-08 0 0 0 -0.00959958 0.00201869 0.0177027 -1.78798e-12 -7.05044e-14 -2.51041e-13 -592318 -1.55634e+06 3.92847e+06 
18 1 3 3.575e-09 2.64396e-08 1.10563e-08 3.77805e-08 0 0 0 0.000940955 -0.0193472 -0.0180978 -4.33799e-13 -1.12774e-13 -4.4888e-13 4.07572e+06 1.2227e+07 -1.0176e+07 
13 1 10 7.575e-09 -7.93932e-09 3.88191e-08 5.09629e-08 0 0 0 0.00310737 -0.049334 0.108371 1.86867e-12 2.70868e-12 6.90302e-12 1.85628e+06 1.19719e+06 -859127 
10 1 12 9.075e-09 8.73865e-11 2.51844e-08 4.58915e-08 0 0 0 8.14758e-05 -0.0320605 0.0847087 -7.22508e-12 2.43584e-12 -7.52453e-12 2.01421e+06 427860 -332376 
8 1 4 4.075e-09 1.25703e-08 2.20606e-08 4.3452e-08 0 0 0 -0.00257666 -0.0315824 0.0693688 -5.6337e-13 -1.15347e-12 -2.80153e-12 3.18388e+06 1.04949e+06 1.24573e+06 
9 1 5 4.575e-09 1.09111e-08 2.88301e-08 3.85331e-08 0 0 0 0.0060711 -0.020761 0.0872878 -1.09764e-12 -2.25486e-12 -1.03243e-12 1.63042e+06 -2.19736e+06 -2.24502e+06 
14 1 4 4.075e-09 -1.85921e-08 3.63639e-08 5.47087e-08 0 0 0 0.00102118 -0.0499321 0.103908 1.16215e-13 1.47876e-13 3.77231e-13 8.8679e+06 2.31211e+06 -264955 
