ITEM: TIMESTEP
25000
ITEM: NUMBER OF ATOMS
31
ITEM: BOX BOUNDS mm mm ss
-8.47369e-08 8.47369e-08
-8.47369e-08 8.47369e-08
-2.01588e-11 1.01183e-07
ITEM: ATOMS id mol type radius x y z ix iy iz vx vy vz fx fy fz omegax omegay omegaz 
30 1 9 6.575e-09 1.24129e-08 -4.68827e-08 3.29801e-08 0 0 0 0.035996 -0.0378353 -0.00935637 -3.94195e-12 3.04508e-12 4.1476e-13 -1.04356e+07 -1.28175e+07 -9.97307e+06 
32 1 2 3.075e-09 2.11304e-08 -4.98901e-08 3.559e-08 0 0 0 -0.0319857 -0.113645 0.134244 2.79862e-14 6.1622e-13 -2.85535e-13 -4.68744e+07 -4.99952e+06 -2.14518e+07 
21 1 4 4.075e-09 -1.03099e-08 -2.53068e-08 2.1077e-08 0 0 0 -0.0126007 -0.0466877 -0.00682346 -2.8879e-12 -1.03688e-12 -1.74339e-12 -9.14248e+06 -1.19673e+06 -1.33057e+07 
22 1 8 6.075e-09 -1.22127e-09 -2.46218e-08 2.52833e-08 0 0 0 -0.00800574 0.00922514 -0.0124252 1.05015e-11 7.35845e-12 8.20154e-12 1.11628e+07 448585 -1.14768e+07 
27 1 8 6.075e-09 1.69155e-09 -3.42805e-08 3.18399e-08 0 0 0 -0.00760466 0.00553896 -0.00460278 -1.67384e-11 -3.22222e-12 -1.47517e-11 2.95648e+06 -1.11314e+06 -4.93696e+06 
28 1 1 2.575e-09 6.69331e-09 -3.8418e-08 2.62713e-08 0 0 0 0.0163001 -0.046629 0.0535638 -9.5639e-13 1.08002e-12 -5.53919e-13 -1.67474e+07 -1.12019e+07 -2.09889e+06 
29 1 2 3.075e-09 1.18414e-08 -4.04866e-08 2.58805e-08 0 0 0 0.0204561 -0.0458085 -0.0247852 9.56627e-13 -4.19708e-13 -2.22173e-12 1.17711e+07 3.5368e+07 6.26405e+06 
31 1 8 6.075e-09 6.12391e-09 -2.5666e-08 3.91035e-08 0 0 0 -0.00332209 -0.00136976 -0.0207459 7.16968e-12 -3.49146e-13 9.89638e-12 4.0684e+06 1.33415e+06 -2.49001e+06 
24 1 11 8.575e-09 -3.42621e-09 -1.50355e-08 3.60419e-08 0 0 0 -0.0110016 -0.00410002 0.00240502 3.82738e-12 -8.64687e-12 -1.39685e-12 431493 -60815.2 566722 
25 1 4 4.075e-09 -5.62704e-10 -3.31667e-09 3.96397e-08 0 0 0 0.0396622 -0.0144606 -0.00287399 -2.86136e-12 1.64914e-12 -4.55822e-12 3.67201e+06 394117 -4.03741e+06 
23 1 6 5.075e-09 7.76674e-09 -1.8869e-08 2.22726e-08 0 0 0 0.0102561 -0.00770445 0.0295396 1.79403e-12 -2.48579e-12 9.11204e-13 4.04251e+06 1.36612e+06 -4.05119e+06 
2 1 7 5.575e-09 -3.42723e-08 1.64465e-08 3.19887e-08 0 0 0 -0.0106402 0.0245571 -0.00279097 2.80287e-12 2.471e-12 8.74763e-13 -2.66848e+06 958946 -794023 
15 1 8 6.075e-09 1.29747e-08 1.17794e-08 3.24044e-08 0 0 0 0.0117925 -0.00191775 0.00142912 6.11186e-13 4.13406e-12 -1.29214e-12 -506576 -889467 1.03027e+06 
16 1 5 4.575e-09 2.09078e-08 1.2733e-08 3.92726e-08 0 0 0 -0.00871947 0.0180126 0.0174835 -1.09579e-12 1.26555e-12 -9.98049e-15 -2.26854e+06 -3.84774e+06 1.54296e+06 
17 1 7 5.575e-09 1.71194e-08 4.28943e-09 2.45545e-08 0 0 0 -0.0036617 -0.00995501 -0.000408747 -2.62288e-12 6.33929e-13 1.39245e-12 -52936 5.55937e+06 1.01802e+06 
18 1 3 3.575e-09 2.82883e-08 9.4744e-09 3.97019e-08 0 0 0 -0.0161889 0.000906998 -0.0117746 -5.37545e-13 4.47854e-13 3.5502e-13 -2.13646e+06 1.43976e+07 -6.6176e+06 
1 1 1 2.575e-09 -3.06253e-08 2.3618e-08 3.22533e-08 0 0 0 -0.0350618 0.0391904 0.0129185 6.65677e-13 1.79134e-12 -3.2334e-13 1.71925e+07 7.29114e+06 7.61533e+06 
3 1 3 3.575e-09 -2.97073e-08 2.85403e-08 3.56283e-08 0 0 0 -0.0208692 0.0359684 0.0174171 -2.22683e-12 -1.19996e-12 4.1824e-13 -8.00168e+06 5.69867e+06 -3.79743e+06 
20 1 13 1.0075e-08 1.91964e-08 -7.85917e-09 4.68049e-08 0 0 0 0.00307195 0.00463953 -0.000369132 3.68615e-12 1.88847e-11 2.17707e-11 -123978 -90440.6 -232681 
7 1 8 6.075e-09 -1.23034e-08 1.56571e-08 4.82377e-08 0 0 0 0.00494268 0.000255841 0.0179445 4.04878e-12 6.80578e-12 1.03675e-11 -1.65061e+06 -1.23775e+06 -461355 
11 1 6 5.075e-09 -2.45997e-10 9.03687e-09 5.74516e-08 0 0 0 -0.000373583 0.00606013 0.0241542 -1.63814e-11 3.8998e-12 -1.73249e-12 9.45297e+06 5.40734e+06 -1.16265e+07 
12 1 4 4.075e-09 -5.4033e-09 8.51328e-09 5.00306e-08 0 0 0 0.00374066 -0.00339279 0.0219714 -1.39188e-12 5.15605e-12 1.82935e-13 2.37272e+06 -1.85843e+06 2.15975e+06 
8 1 4 4.075e-09 1.62182e-08 1.81598e-08 5.13863e-08 0 0 0 0.00125681 0.0144944 -0.0209782 1.85878e-12 2.04446e-12 6.95037e-13 -504643 1.9791e+06 2.67717e+06 
19 1 12 9.075e-09 6.48413e-09 6.37341e-09 4.49523e-08 0 0 0 0.00687457 0.00465043 -0.000274001 1.43887e-11 -3.52776e-11 -1.86984e-11 -369679 -1.54194e+06 1.73072e+06 
4 1 2 3.075e-09 -2.59439e-08 2.97758e-08 4.08651e-08 0 0 0 -0.00842071 0.0502612 0.00348563 -2.44863e-12 -3.0475e-12 1.72631e-12 -3.53932e+06 -696534 -1.94292e+06 
5 1 2 3.075e-09 -2.00336e-08 2.90352e-08 4.19222e-08 0 0 0 -0.0149817 0.012559 0.012652 -1.25756e-12 -4.12653e-12 -3.49608e-12 -7.44567e+06 620130 -7.43138e+06 
6 1 4 4.075e-09 -1.52005e-08 2.45146e-08 4.43493e-08 0 0 0 -0.0212919 -0.00278169 0.0108669 3.57151e-12 -1.52221e-12 -1.71569e-12 2.53104e+06 -3.61781e+06 1.03784e+06 
9 1 5 4.575e-09 1.53298e-08 2.61791e-08 4.86147e-08 0 0 0 -0.0237532 0.0128267 -0.0228521 1.09783e-12 1.01513e-12 3.13748e-12 675339 1.96756e+06 4.96071e+06 
10 1 12 9.075e-09 4.56786e-09 2.21489e-08 5.58567e-08 0 0 0 -0.00359505 0.00160705 -0.00744893 -3.7604e-12 3.90854e-13 -1.03219e-11 -894908 -124838 -501745 
13 1 10 7.575e-09 -1.5023e-09 3.50844e-08 6.43346e-08 0 0 0 -0.0038415 0.00137054 -0.000743255 1.52831e-12 -6.94023e-13 1.85987e-12 -825367 -282927 1.26597e+06 
14 1 4 4.075e-09 -1.2019e-08 3.30313e-08 6.86619e-08 0 0 0 -0.00189789 0.0036985 0.00886709 5.71915e-13 -6.60976e-13 8.97254e-13 1.89838e+07 3.39678e+06 -7.09461e+06 
