ITEM: TIMESTEP
300000
ITEM: NUMBER OF ATOMS
31
ITEM: BOX BOUNDS mm mm ss
-8.47369e-08 8.47369e-08
-8.47369e-08 8.47369e-08
-2.01588e-11 8.92322e-08
ITEM: ATOMS id mol type radius x y z ix iy iz vx vy vz fx fy fz omegax omegay omegaz 
3 1 3 3.575e-09 -2.95734e-08 1.34986e-08 2.07002e-08 0 0 0 0.00073648 0.0255285 0.0174582 -2.06091e-12 -5.99557e-13 4.41066e-13 8.87373e+06 -5.09331e+06 7.52077e+06 
1 1 1 2.575e-09 -2.82179e-08 7.61456e-09 2.07501e-08 0 0 0 -0.00386899 0.0248865 0.00257404 7.59953e-13 1.41536e-12 -6.91703e-13 -2.53431e+06 -860231 -7.18657e+06 
29 1 2 3.075e-09 1.69623e-08 -4.30546e-08 3.46631e-08 0 0 0 -0.0637327 0.0113686 0.000714995 3.41562e-13 -9.81644e-13 2.71498e-13 5.77221e+06 2.1849e+07 -5.83416e+06 
30 1 9 6.575e-09 1.70517e-08 -4.74826e-08 4.31497e-08 0 0 0 -0.000447646 -0.0095226 -0.028901 6.37058e-12 -2.50681e-12 1.51815e-12 -235342 -1.90261e+06 -1.5721e+06 
21 1 4 4.075e-09 -5.46602e-09 -3.21249e-08 2.30181e-08 0 0 0 0.00918229 -0.0146259 -0.00454097 -5.03528e-12 -6.70132e-12 -5.183e-13 7.97786e+06 -4.19567e+06 -1.67714e+07 
23 1 6 5.075e-09 1.16163e-08 -2.35524e-08 2.45615e-08 0 0 0 -0.00739097 0.00817002 -0.0211633 -3.70396e-12 3.17183e-12 -1.4039e-12 -2.30066e+06 1.08599e+06 1.20125e+06 
28 1 1 2.575e-09 1.17229e-08 -4.20467e-08 3.30939e-08 0 0 0 -0.04398 0.00464666 0.0237607 1.02901e-12 -4.88683e-13 -2.35929e-12 -1.89107e+06 -1.59514e+07 1.62092e+06 
22 1 8 6.075e-09 2.81184e-09 -2.93617e-08 2.79786e-08 0 0 0 -0.00693821 -0.00668607 -0.0203068 7.20524e-12 -1.09435e-11 3.55031e-12 9.34394e+06 -892569 -6.42728e+06 
27 1 8 6.075e-09 5.63615e-09 -3.72094e-08 3.66567e-08 0 0 0 0.0121903 0.00770321 -0.00242942 -3.19668e-12 1.01049e-11 7.92884e-12 8.0303e+06 -906213 -5.10885e+06 
31 1 8 6.075e-09 8.75679e-09 -2.69665e-08 4.22982e-08 0 0 0 -0.0101988 -0.00607778 -0.0217231 -1.40369e-12 9.87762e-12 -3.70524e-12 4.14417e+06 361507 -1.30917e+06 
24 1 11 8.575e-09 -1.11469e-09 -1.80348e-08 3.62847e-08 0 0 0 -0.000443808 0.00467103 -0.00865478 -2.04867e-12 -2.96358e-12 -5.78327e-12 1.94265e+06 300811 -228595 
25 1 4 4.075e-09 2.80556e-10 -5.54105e-09 3.69437e-08 0 0 0 0.0139433 -0.00397477 -0.00843882 4.56123e-13 -9.75885e-13 1.10554e-12 1.74587e+06 1.9185e+06 1.31421e+06 
2 1 7 5.575e-09 -3.03301e-08 2.14846e-10 2.31126e-08 0 0 0 -0.00758968 0.0240316 -0.00434961 1.76116e-12 -6.40231e-13 -7.62197e-13 196521 608642 674082 
4 1 2 3.075e-09 -2.79259e-08 1.82315e-08 2.49424e-08 0 0 0 0.0181928 0.0219959 0.0165907 -2.06847e-12 -3.35912e-13 1.31566e-13 -3.93679e+06 2.51438e+07 6.71571e+06 
5 1 2 3.075e-09 -2.27353e-08 2.03926e-08 2.71751e-08 0 0 0 0.0102544 0.0434907 0.013107 -3.70524e-13 -3.21414e-12 1.72059e-12 1.97723e+07 -2.24332e+07 5.11487e+06 
7 1 8 6.075e-09 -1.43409e-08 1.2651e-08 3.90352e-08 0 0 0 0.0170361 0.000244117 0.016556 3.60128e-12 5.36169e-12 1.96788e-12 248492 1.10723e+06 849987 
6 1 4 4.075e-09 -1.79227e-08 1.91303e-08 3.21682e-08 0 0 0 -0.0203449 -0.00372001 0.0270178 4.39786e-12 -9.1678e-13 2.02254e-12 1.13341e+06 5.18509e+06 142443 
12 1 4 4.075e-09 -6.84814e-09 7.76265e-09 4.37067e-08 0 0 0 0.00422579 0.0125632 0.0162476 -3.39152e-12 9.3648e-13 -2.3662e-12 -4.08711e+06 -3.99008e+06 4.42184e+06 
17 1 7 5.575e-09 1.83561e-08 2.61463e-10 2.25187e-08 0 0 0 0.00219894 0.00745617 0.00475964 -9.57458e-13 3.27146e-13 -5.93392e-13 74714.6 -2.39686e+06 1.88193e+06 
15 1 8 6.075e-09 1.27893e-08 9.21882e-09 2.7384e-08 0 0 0 -0.00576449 -0.00113522 0.00947016 1.62505e-12 -8.6174e-13 4.77255e-13 1.22124e+06 2.05313e+06 -801622 
16 1 5 4.575e-09 1.94463e-08 1.30174e-08 3.46134e-08 0 0 0 0.0153587 -0.0180889 0.00220597 5.40762e-13 8.37243e-13 -5.29429e-13 413844 1.08856e+06 -1.98654e+06 
19 1 12 9.075e-09 5.67353e-09 5.91819e-09 4.03173e-08 0 0 0 0.00132698 -0.0114188 0.00754714 8.42922e-12 -8.916e-12 1.91842e-12 295767 434956 365606 
18 1 3 3.575e-09 2.64587e-08 1.0695e-08 3.78844e-08 0 0 0 0.0119933 -0.00301582 0.0238286 3.35151e-13 5.85729e-13 2.48645e-13 7.58207e+06 -1.06524e+07 1.09787e+07 
9 1 5 4.575e-09 1.10178e-08 2.84807e-08 3.95153e-08 0 0 0 -0.00305541 -0.0073972 0.0257545 1.18539e-12 5.37579e-13 2.59471e-12 1.38599e+06 1.36001e+06 2.84115e+06 
8 1 4 4.075e-09 1.26397e-08 2.15647e-08 4.42392e-08 0 0 0 0.00635015 -0.0126779 0.0201486 5.9454e-13 1.55044e-12 3.88244e-13 233418 -390603 -372154 
32 1 2 3.075e-09 2.55341e-08 -4.88912e-08 4.7382e-08 0 0 0 -0.00191929 0.00189883 -0.0280954 9.86516e-13 8.82096e-13 4.26453e-13 7.83151e+06 4.25199e+06 4.2045e+06 
20 1 13 1.0075e-08 1.90504e-08 -6.69304e-09 4.57594e-08 0 0 0 -0.00270064 -0.00832338 -0.00266169 -6.67863e-12 1.03408e-11 -4.24863e-12 21004 -199300 355575 
11 1 6 5.075e-09 -3.28881e-09 1.17445e-08 5.10154e-08 0 0 0 -0.00286994 -0.0137319 0.0247902 -1.3997e-11 -1.81784e-13 -9.20734e-12 6.74956e+06 9.16115e+06 -1.06427e+07 
13 1 10 7.575e-09 -7.78971e-09 3.82374e-08 5.21719e-08 0 0 0 0.00882815 -0.0124235 0.0315456 -1.36015e-12 -1.24484e-12 -5.28733e-12 855941 -879945 1.04898e+06 
14 1 4 4.075e-09 -1.84476e-08 3.57169e-08 5.58593e-08 0 0 0 0.0126104 -0.020275 0.0344781 6.16453e-14 -3.24477e-13 -4.05097e-13 936829 70179.5 -2.47401e+06 
10 1 12 9.075e-09 1.76651e-10 2.46926e-08 4.6775e-08 0 0 0 0.00246501 -0.0153876 0.0151607 6.88432e-12 -3.46448e-12 9.54007e-12 394256 -971242 -427583 
