ITEM: TIMESTEP
30000
ITEM: NUMBER OF ATOMS
31
ITEM: BOX BOUNDS mm mm ss
-8.47369e-08 8.47369e-08
-8.47369e-08 8.47369e-08
-2.01588e-11 9.96822e-08
ITEM: ATOMS id mol type radius x y z ix iy iz vx vy vz fx fy fz omegax omegay omegaz 
30 1 9 6.575e-09 1.2398e-08 -4.68955e-08 3.2973e-08 0 0 0 0.00388915 0.016728 -0.0128224 -1.00806e-11 5.45583e-12 4.77564e-12 2.97741e+06 3.56942e+06 2.23255e+06 
32 1 2 3.075e-09 2.11154e-08 -4.99093e-08 3.5576e-08 0 0 0 -0.00511374 -0.00859746 -0.0115796 -2.25747e-13 3.21162e-13 -2.0776e-12 6.3743e+06 -9.04348e+06 -5.93178e+06 
21 1 4 4.075e-09 -1.03145e-08 -2.52954e-08 2.10779e-08 0 0 0 -0.0129066 0.0282667 -0.00800308 2.37346e-12 9.17648e-12 -1.621e-12 1.36e+07 1.8831e+06 -1.81116e+07 
22 1 8 6.075e-09 -1.22594e-09 -2.46213e-08 2.52863e-08 0 0 0 0.00278216 -0.0165447 0.0142619 1.20321e-11 9.45759e-12 9.39585e-12 3.37363e+06 -126197 -4.21914e+06 
27 1 8 6.075e-09 1.67732e-09 -3.42819e-08 3.18444e-08 0 0 0 -0.00971219 -0.00969878 0.017258 -1.61077e-11 -6.93848e-12 -2.25001e-11 1.68486e+06 -1.26905e+06 -2.47322e+06 
28 1 1 2.575e-09 6.6742e-09 -3.84252e-08 2.62756e-08 0 0 0 -0.0183896 0.00343092 -0.013541 -1.22952e-12 1.48136e-12 -3.18975e-12 -1.0374e+07 1.18319e+07 9.24615e+06 
29 1 2 3.075e-09 1.18197e-08 -4.04986e-08 2.58746e-08 0 0 0 -0.00039844 0.0244085 -0.00171212 4.63879e-13 5.39e-13 -2.01758e-12 -1.81647e+06 -1.29433e+07 3.65264e+06 
31 1 8 6.075e-09 6.1152e-09 -2.56703e-08 3.9108e-08 0 0 0 -0.010617 -0.00531063 0.0191458 1.40276e-11 -5.97526e-12 1.65791e-11 721808 -1.10339e+06 -1.68124e+06 
24 1 11 8.575e-09 -3.42616e-09 -1.50327e-08 3.60439e-08 0 0 0 0.00382593 0.0106729 -0.00609471 -2.16549e-12 -8.89937e-12 1.9055e-12 -472766 -709401 -1.20827e+06 
25 1 4 4.075e-09 -5.55728e-10 -3.31558e-09 3.96421e-08 0 0 0 -0.0187375 0.0128493 0.0185453 5.73685e-12 -2.53067e-12 2.43213e-12 -186128 -988152 -533391 
23 1 6 5.075e-09 7.76809e-09 -1.88763e-08 2.22786e-08 0 0 0 -0.0217838 -0.013214 -0.0169138 -1.67137e-13 6.20906e-13 1.2628e-12 -5.66668e+06 374508 7.66772e+06 
2 1 7 5.575e-09 -3.4264e-08 1.63967e-08 3.19896e-08 0 0 0 0.0272095 -0.0268938 -3.78343e-05 6.73615e-13 -2.34814e-12 -2.34432e-12 2.59375e+06 -2.13766e+06 3.12234e+06 
15 1 8 6.075e-09 1.29795e-08 1.17811e-08 3.24066e-08 0 0 0 -0.0109862 -0.00059201 0.00228597 -3.36372e-13 -1.98678e-12 1.37481e-12 487163 1.04142e+06 503893 
16 1 5 4.575e-09 2.09132e-08 1.27384e-08 3.92735e-08 0 0 0 -0.000849145 -0.00435037 -0.00912138 -1.19563e-12 -1.58527e-12 3.47018e-14 -1.78954e+06 1.59191e+06 -1.83932e+06 
17 1 7 5.575e-09 1.71254e-08 4.29136e-09 2.45571e-08 0 0 0 -0.00206848 0.00213361 -0.000565718 1.09061e-12 -8.23251e-13 -2.42355e-13 753690 -2.30862e+06 -165923 
18 1 3 3.575e-09 2.82954e-08 9.48382e-09 3.97031e-08 0 0 0 -0.00244345 -0.00631451 0.0105815 -3.06406e-14 2.82786e-13 2.62127e-13 -3.25303e+06 -5.92863e+06 1.62846e+06 
1 1 1 2.575e-09 -3.06289e-08 2.35742e-08 3.22489e-08 0 0 0 0.0258307 -0.028189 -0.0226294 6.73923e-13 1.3322e-12 1.37051e-13 -1.28195e+07 5.94706e+06 -7.61532e+06 
3 1 3 3.575e-09 -2.97188e-08 2.85007e-08 3.562e-08 0 0 0 0.0104426 -0.0443491 2.00704e-05 -3.1002e-12 2.23214e-13 -5.64198e-13 1.45861e+07 -2.3549e+07 -3.17057e+06 
20 1 13 1.0075e-08 1.92063e-08 -7.85581e-09 4.68083e-08 0 0 0 0.00633997 -0.00971272 -0.00228454 -1.23736e-11 -1.21112e-11 -1.57434e-11 -262993 -168081 203346 
7 1 8 6.075e-09 -1.23034e-08 1.56481e-08 4.82371e-08 0 0 0 -0.0172684 0.0111898 -0.00528793 4.6643e-12 -9.20213e-12 -6.78913e-12 980322 4.59881e+06 -1.07092e+06 
11 1 6 5.075e-09 -2.39791e-10 9.04379e-09 5.74535e-08 0 0 0 0.0227106 -0.000444817 -0.010042 5.30995e-12 3.76881e-12 9.88224e-12 -8.12907e+06 -1.38145e+07 7.10343e+06 
12 1 4 4.075e-09 -5.39723e-09 8.51099e-09 5.00334e-08 0 0 0 0.00419162 -0.0160001 -0.0157663 3.83237e-12 -4.24392e-12 1.55742e-12 7.72183e+06 4.60386e+06 -3.66163e+06 
8 1 4 4.075e-09 1.62179e-08 1.81755e-08 5.13827e-08 0 0 0 -0.00231969 0.00450227 0.000703462 -1.63749e-13 -9.21338e-13 -1.84674e-12 481577 -1.29104e+06 -665141 
19 1 12 9.075e-09 6.49129e-09 6.37421e-09 4.49553e-08 0 0 0 -0.000170602 0.00674929 0.0126424 5.02615e-14 2.08087e-11 1.17483e-11 130537 250085 543926 
4 1 2 3.075e-09 -2.59579e-08 2.97447e-08 4.08565e-08 0 0 0 -0.0321061 -0.0962396 0.0340076 -1.57242e-12 -5.76996e-15 -3.7476e-14 1.14781e+07 1.55218e+07 1.35905e+07 
5 1 2 3.075e-09 -2.00461e-08 2.90127e-08 4.19107e-08 0 0 0 -0.0102815 -0.0293909 -0.0627542 -1.13319e-12 2.99967e-12 4.12238e-12 -9.13647e+06 1.31894e+07 1.04204e+07 
6 1 4 4.075e-09 -1.52078e-08 2.45006e-08 4.43433e-08 0 0 0 0.00478966 0.0191888 -0.0121732 4.05672e-12 1.58954e-12 -8.28554e-13 7.96834e+06 -3.10702e+07 1.10081e+07 
9 1 5 4.575e-09 1.5323e-08 2.61927e-08 4.8607e-08 0 0 0 0.00655071 0.00602183 0.00295425 3.88304e-13 -3.04523e-12 -1.45323e-12 389112 -410761 -1.13325e+06 
10 1 12 9.075e-09 4.565e-09 2.21584e-08 5.58524e-08 0 0 0 0.00245658 0.00599983 0.00173918 -1.9297e-12 4.48141e-12 -1.02794e-11 476216 97073.3 303158 
13 1 10 7.575e-09 -1.51266e-09 3.50933e-08 6.43261e-08 0 0 0 -0.00880024 0.006811 -0.0107302 -2.62773e-12 -1.08705e-13 5.86235e-12 -393534 1.54892e+06 1.64135e+06 
14 1 4 4.075e-09 -1.20267e-08 3.30331e-08 6.86564e-08 0 0 0 -0.000720565 -0.0117961 -0.00359594 -9.34442e-13 -1.81314e-12 2.02511e-13 1.43775e+07 4.68778e+06 -4.97705e+06 
