ITEM: TIMESTEP
35000
ITEM: NUMBER OF ATOMS
31
ITEM: BOX BOUNDS mm mm ss
-8.47369e-08 8.47369e-08
-8.47369e-08 8.47369e-08
-2.01588e-11 9.81817e-08
ITEM: ATOMS id mol type radius x y z ix iy iz vx vy vz fx fy fz omegax omegay omegaz 
30 1 9 6.575e-09 1.2398e-08 -4.69034e-08 3.29722e-08 0 0 0 -0.0492147 0.0284015 0.0357124 -1.14601e-12 1.34459e-12 4.43739e-14 1.19558e+07 1.02855e+07 8.96886e+06 
32 1 2 3.075e-09 2.11157e-08 -4.99221e-08 3.55682e-08 0 0 0 0.00710108 0.0702895 -0.104979 -2.39759e-13 -1.34429e-13 4.27637e-13 4.80532e+07 -3.01804e+06 2.20319e+07 
21 1 4 4.075e-09 -1.0312e-08 -2.53038e-08 2.10854e-08 0 0 0 0.0170599 -0.14191 -0.00510914 2.29852e-12 1.03848e-11 -2.51341e-12 -6.86778e+06 -1.08886e+06 1.28734e+07 
22 1 8 6.075e-09 -1.22295e-09 -2.46245e-08 2.52917e-08 0 0 0 0.0266229 0.0010789 0.000689696 2.24238e-12 3.81513e-12 6.26966e-12 5.63287e+06 1.42802e+06 -3.58466e+06 
27 1 8 6.075e-09 1.68301e-09 -3.42837e-08 3.18506e-08 0 0 0 0.0279845 6.83933e-05 -0.00788782 -2.05573e-11 -1.08688e-11 -2.54028e-11 -783631 -2.39371e+06 3.27536e+06 
28 1 1 2.575e-09 6.67848e-09 -3.84253e-08 2.62796e-08 0 0 0 0.0074924 0.0493106 -0.0593855 -6.56018e-13 1.04578e-12 -1.8047e-12 1.64911e+07 8.48297e+06 -1.17692e+06 
29 1 2 3.075e-09 1.18234e-08 -4.04999e-08 2.58795e-08 0 0 0 0.00210131 0.0320708 0.0369648 8.76853e-13 -1.96168e-12 -1.18866e-12 -1.48315e+07 -4.70456e+07 -1.02428e+07 
31 1 8 6.075e-09 6.12009e-09 -2.56706e-08 3.9113e-08 0 0 0 0.0104994 -0.00395622 0.0159382 6.16578e-12 -6.82486e-12 1.2658e-11 -108409 -2.88134e+06 2.43756e+06 
24 1 11 8.575e-09 -3.4237e-09 -1.50352e-08 3.60486e-08 0 0 0 0.0121621 -0.0133974 -0.00217273 1.03884e-11 9.10431e-12 5.03776e-12 1.43106e+06 -617019 -384124 
23 1 6 5.075e-09 7.76885e-09 -1.88777e-08 2.22807e-08 0 0 0 -0.00130172 0.0221879 -0.0226021 2.67936e-12 -7.0495e-12 4.50646e-12 72604.1 -1.54429e+06 1.00729e+07 
2 1 7 5.575e-09 -3.42664e-08 1.638e-08 3.19878e-08 0 0 0 -0.0166157 0.0110759 0.00652843 2.24969e-13 -1.77923e-12 -3.64106e-12 -5.75523e+06 3.2552e+06 -3.52823e+06 
15 1 8 6.075e-09 1.29776e-08 1.17817e-08 3.24056e-08 0 0 0 0.00621387 -0.00105202 -0.00375259 3.29106e-13 -2.24156e-12 -9.50894e-13 -137469 -1.47997e+06 -496451 
17 1 7 5.575e-09 1.71268e-08 4.29098e-09 2.45589e-08 0 0 0 0.011157 -0.00319966 0.00145951 8.53318e-13 6.05381e-13 -3.85825e-12 -682688 -108407 -88911.1 
1 1 1 2.575e-09 -3.06337e-08 2.35588e-08 3.22467e-08 0 0 0 -0.0293257 0.0157685 0.0147714 2.47886e-13 1.70205e-12 -1.93515e-13 1.45575e+07 -3.99957e+06 9.25301e+06 
3 1 3 3.575e-09 -2.97274e-08 2.84869e-08 3.56163e-08 0 0 0 -0.0153598 0.00947616 0.020429 -1.77055e-12 -8.75335e-13 1.72934e-12 -3.57483e+06 3.84521e+07 1.4252e+07 
25 1 4 4.075e-09 -5.55659e-10 -3.3168e-09 3.9644e-08 0 0 0 -0.0253811 -0.00956918 0.0101371 -4.09579e-12 2.49085e-12 1.8119e-12 -2.77461e+06 1.1758e+06 6.79648e+06 
20 1 13 1.0075e-08 1.92061e-08 -7.85153e-09 4.68109e-08 0 0 0 -0.00477465 0.00608995 0.000255022 1.21988e-11 -1.01424e-11 -5.94438e-12 -216172 -182775 -100759 
7 1 8 6.075e-09 -1.2307e-08 1.56471e-08 4.82357e-08 0 0 0 0.00998867 -0.00370919 -0.0113357 -1.71006e-11 -2.30366e-12 -7.56188e-12 2.67567e+06 -1.26266e+06 142790 
11 1 6 5.075e-09 -2.41545e-10 9.04666e-09 5.74515e-08 0 0 0 -0.0135581 0.00642234 -0.00621767 9.71716e-12 -7.80992e-12 -2.75357e-13 -1.86402e+06 -1.32712e+06 2.1971e+06 
12 1 4 4.075e-09 -5.39983e-09 8.51142e-09 5.00324e-08 0 0 0 -0.00746038 -0.00186316 -0.00600454 2.51322e-12 6.42057e-13 -3.6487e-12 1.1122e+06 159317 -1.47299e+06 
16 1 5 4.575e-09 2.09094e-08 1.27438e-08 3.92741e-08 0 0 0 0.0103253 -0.00443799 -0.00362242 1.27501e-12 -2.53498e-13 -1.68653e-12 782005 273179 -1.40142e+06 
8 1 4 4.075e-09 1.62166e-08 1.81746e-08 5.1378e-08 0 0 0 -0.00075705 -0.00136689 0.00760595 -1.56245e-13 1.68964e-12 -1.58509e-12 -901550 -398237 -1.55651e+06 
19 1 12 9.075e-09 6.48895e-09 6.37608e-09 4.49546e-08 0 0 0 -0.0082508 -0.00761828 -0.00943013 -1.65764e-11 1.1131e-11 1.49881e-11 829431 1.85785e+06 -1.70761e+06 
18 1 3 3.575e-09 2.82927e-08 9.49193e-09 3.97052e-08 0 0 0 0.00798451 -0.0125483 -0.00492481 1.22145e-12 5.41876e-13 1.33744e-12 6.33571e+06 -3.29733e+06 -729760 
4 1 2 3.075e-09 -2.59672e-08 2.97345e-08 4.08525e-08 0 0 0 0.0360333 0.0525518 -0.0238386 -1.71638e-12 2.43711e-12 8.85175e-13 1.10493e+06 -2.03867e+07 -2.18351e+06 
5 1 2 3.075e-09 -2.00551e-08 2.90078e-08 4.19089e-08 0 0 0 0.0091027 0.0386202 0.111158 -1.28386e-12 6.50301e-13 6.49217e-13 2.78489e+07 -2.16905e+07 -792761 
6 1 4 4.075e-09 -1.52142e-08 2.44984e-08 4.43411e-08 0 0 0 0.0225959 0.000741542 0.00121745 4.63504e-12 6.11725e-12 -1.49106e-12 -9.54188e+06 4.21403e+07 -1.49122e+07 
9 1 5 4.575e-09 1.53232e-08 2.61914e-08 4.86008e-08 0 0 0 0.00883402 -0.004111 0.00139644 -1.7712e-12 -3.90988e-14 -1.75958e-12 -1.72588e+06 -288131 -3.23112e+06 
10 1 12 9.075e-09 4.56457e-09 2.21604e-08 5.58472e-08 0 0 0 0.0020018 0.00140589 0.00403818 9.45174e-12 -3.77805e-12 2.19809e-11 -471314 1.50695e+06 1.8026e+06 
13 1 10 7.575e-09 -1.51038e-09 3.50977e-08 6.43192e-08 0 0 0 -0.00572256 0.000862749 -0.00494282 -4.53168e-13 2.00785e-12 -7.60905e-12 -139824 1.02252e+06 209140 
14 1 4 4.075e-09 -1.20249e-08 3.30412e-08 6.86502e-08 0 0 0 -0.00140814 -0.005221 0.00172764 2.04316e-13 3.52136e-13 -1.21109e-12 1.46123e+07 3.99238e+06 -5.98103e+06 
