ITEM: TIMESTEP
350000
ITEM: NUMBER OF ATOMS
31
ITEM: BOX BOUNDS mm mm ss
-8.47369e-08 8.47369e-08
-8.47369e-08 8.47369e-08
-2.01588e-11 1.02737e-07
ITEM: ATOMS id mol type radius x y z ix iy iz vx vy vz fx fy fz omegax omegay omegaz 
29 1 2 3.075e-09 1.68483e-08 -4.31151e-08 3.4033e-08 0 0 0 -0.00481412 -0.00937085 -0.0296019 5.31571e-12 -4.78139e-13 -1.89962e-12 -3.74694e+06 -2.32099e+07 2.90641e+06 
21 1 4 4.075e-09 -5.58942e-09 -3.19574e-08 2.26271e-08 0 0 0 0.00743126 0.046239 -0.0208632 6.27589e-13 -5.22326e-12 3.68692e-12 5.16927e+06 84442 -2.05069e+06 
23 1 6 5.075e-09 1.15173e-08 -2.34552e-08 2.42601e-08 0 0 0 -0.000829944 0.00681936 -0.0147478 -1.60054e-13 7.29346e-12 -7.05078e-12 -2.09942e+06 -1.65507e+06 1.7917e+06 
28 1 1 2.575e-09 1.16058e-08 -4.20498e-08 3.25128e-08 0 0 0 -0.0134027 -0.000655055 -0.0471876 3.01232e-12 -9.83098e-13 -7.49842e-14 5.58912e+06 1.9997e+07 -3.19156e+06 
22 1 8 6.075e-09 2.70889e-09 -2.92974e-08 2.761e-08 0 0 0 -0.00432253 0.00791896 -0.0151639 -9.48982e-12 -1.37432e-11 -1.08436e-11 -9.10636e+06 536080 6.62239e+06 
27 1 8 6.075e-09 5.53832e-09 -3.72642e-08 3.61767e-08 0 0 0 -0.0170646 -0.00558175 -0.0235546 8.20751e-12 1.34693e-11 2.32921e-11 -4.5588e+06 1.7282e+06 3.16532e+06 
24 1 11 8.575e-09 -1.17363e-09 -1.80698e-08 3.60695e-08 0 0 0 -0.00188044 -0.00332112 -0.0056255 9.42917e-13 -2.22809e-12 4.83524e-12 -1.08916e+06 134328 149051 
25 1 4 4.075e-09 2.66883e-10 -5.59329e-09 3.69281e-08 0 0 0 0.0147038 -0.00856729 -0.00878224 9.59039e-13 -1.07042e-12 1.40819e-12 1.9986e+06 -1.56024e+06 -3.42795e+06 
3 1 3 3.575e-09 -2.96117e-08 1.41162e-08 2.10754e-08 0 0 0 -0.00233744 0.0325052 -0.00781914 -1.79844e-12 -4.82685e-13 1.58658e-12 -8.4303e+06 1.74867e+07 -2.04251e+06 
1 1 1 2.575e-09 -2.83045e-08 8.22337e-09 2.09084e-08 0 0 0 -0.0104348 0.0291934 0.0218589 -4.11072e-13 1.57103e-12 1.92077e-13 852106 -5.7374e+06 536276 
2 1 7 5.575e-09 -3.04525e-08 7.76349e-10 2.30825e-08 0 0 0 -0.00324798 0.0188295 0.000596538 2.98429e-12 1.13601e-13 -1.42912e-12 595201 235676 -1.22951e+06 
4 1 2 3.075e-09 -2.79059e-08 1.86955e-08 2.54609e-08 0 0 0 -0.0183191 0.0121746 0.0220824 1.3256e-12 -1.56922e-12 1.42265e-12 7.23332e+06 -4.03505e+07 -1.12251e+07 
5 1 2 3.075e-09 -2.26851e-08 2.07339e-08 2.77381e-08 0 0 0 -0.0252279 -0.000557939 0.0473421 -3.54365e-13 -3.30158e-12 2.73474e-12 -1.56481e+07 3.47004e+07 -3.45044e+06 
7 1 8 6.075e-09 -1.42827e-08 1.26469e-08 3.93813e-08 0 0 0 0.0124658 0.00383518 0.020546 -9.88056e-13 1.64367e-12 5.94797e-12 1.44822e+06 1.49628e+06 2.63063e+06 
6 1 4 4.075e-09 -1.7857e-08 1.92872e-08 3.26659e-08 0 0 0 0.017585 0.00778131 0.00935805 5.7326e-12 -1.6806e-12 -1.47961e-12 2.51828e+06 -8.66308e+06 -1.97085e+06 
17 1 7 5.575e-09 1.83181e-08 3.62445e-10 2.25186e-08 0 0 0 0.000160061 0.0033708 -0.00432517 2.09668e-13 7.61238e-13 1.49289e-12 1.6418e+06 1.68052e+06 -1.3762e+06 
15 1 8 6.075e-09 1.28026e-08 9.2515e-09 2.75642e-08 0 0 0 0.00479641 -0.00230749 0.0118867 -1.19361e-12 8.80632e-13 -2.29533e-12 160601 -165057 891704 
16 1 5 4.575e-09 1.95012e-08 1.28765e-08 3.4844e-08 0 0 0 -0.00914401 0.00598074 0.0208896 -8.4407e-13 -7.67377e-13 -5.5038e-13 -821283 -1.04907e+06 1.25627e+06 
19 1 12 9.075e-09 5.70852e-09 5.79255e-09 4.0468e-08 0 0 0 0.00335878 -0.00970912 0.00474965 7.69596e-12 -2.69432e-12 -3.46924e-12 112617 -399710 1.02623e+06 
18 1 3 3.575e-09 2.65153e-08 1.04304e-08 3.802e-08 0 0 0 -0.00623577 -0.0212647 -0.00780385 -5.03065e-13 3.56552e-14 5.28158e-13 3.06595e+06 9.52657e+06 -8.86912e+06 
9 1 5 4.575e-09 1.11517e-08 2.82703e-08 4.00295e-08 0 0 0 -0.000287256 -0.0106995 0.0227773 5.85215e-13 3.70025e-13 2.32331e-12 1.72635e+06 1.28231e+06 2.09388e+06 
30 1 9 6.575e-09 1.695e-08 -4.76751e-08 4.24492e-08 0 0 0 -0.00104507 -0.0086719 -0.0273275 1.08791e-12 -1.58543e-13 3.21765e-12 469185 -1.61628e+06 -1.72271e+06 
32 1 2 3.075e-09 2.54397e-08 -4.91635e-08 4.66393e-08 0 0 0 0.00229891 -0.00223121 -0.027381 -1.53142e-14 -1.49135e-12 4.69907e-13 1.59505e+07 2.7028e+06 8.54021e+06 
31 1 8 6.075e-09 8.68924e-09 -2.71019e-08 4.19464e-08 0 0 0 -0.000337334 -0.00776003 -0.013362 -8.18145e-12 4.57133e-12 -1.57408e-11 -2.72504e+06 341369 615011 
20 1 13 1.0075e-08 1.90658e-08 -6.90905e-09 4.57454e-08 0 0 0 -0.000891232 -0.00667124 -0.00105619 1.7081e-12 2.02342e-12 3.64526e-12 607257 206055 -274345 
12 1 4 4.075e-09 -6.79703e-09 7.62605e-09 4.3922e-08 0 0 0 0.0102531 0.00155266 0.0166076 -5.21704e-12 4.61498e-12 -4.20473e-12 1.99304e+06 2.97876e+06 -211114 
11 1 6 5.075e-09 -3.18858e-09 1.14173e-08 5.13076e-08 0 0 0 0.000786201 -0.00532547 0.0199977 -1.57435e-11 -8.98664e-13 -9.25193e-12 8.91726e+06 5.90106e+06 -1.2445e+07 
13 1 10 7.575e-09 -7.60598e-09 3.79139e-08 5.28379e-08 0 0 0 0.00847655 -0.00726651 0.0284207 -9.60978e-13 -6.00046e-13 -5.75833e-12 665996 -906005 1.14075e+06 
14 1 4 4.075e-09 -1.8263e-08 3.53702e-08 5.6512e-08 0 0 0 0.0121354 -0.0188276 0.0296545 1.99868e-13 -1.28817e-13 -3.91371e-13 827809 304752 -2.81732e+06 
8 1 4 4.075e-09 1.27543e-08 2.12746e-08 4.46413e-08 0 0 0 0.00358864 -0.0179219 0.0153097 7.14389e-13 1.64731e-12 5.29816e-13 641749 -563597 -755438 
10 1 12 9.075e-09 3.10034e-10 2.44159e-08 4.7253e-08 0 0 0 0.002314 -0.0116572 0.0134544 4.97883e-12 -1.86295e-12 7.92019e-12 282364 -924567 -404383 
