ITEM: TIMESTEP
40000
ITEM: NUMBER OF ATOMS
31
ITEM: BOX BOUNDS mm mm ss
-8.47369e-08 8.47369e-08
-8.47369e-08 8.47369e-08
-2.01588e-11 9.66812e-08
ITEM: ATOMS id mol type radius x y z ix iy iz vx vy vz fx fy fz omegax omegay omegaz 
21 1 4 4.075e-09 -1.03041e-08 -2.53171e-08 2.10885e-08 0 0 0 0.00730317 0.00881223 0.000925854 2.60231e-12 5.0116e-12 1.57648e-13 -5.97298e+06 -113343 -2.9142e+06 
23 1 6 5.075e-09 7.77262e-09 -1.88814e-08 2.22822e-08 0 0 0 -0.0039225 0.0133907 -0.00329174 3.271e-12 -4.35686e-12 3.91177e-12 -3.37118e+06 1.77691e+06 6.7816e+06 
30 1 9 6.575e-09 1.2417e-08 -4.68872e-08 3.30077e-08 0 0 0 -0.0168609 -0.00648886 0.0078638 6.5996e-12 -5.9483e-12 -2.32558e-12 3.04027e+06 3.71295e+06 3.61975e+06 
32 1 2 3.075e-09 2.11381e-08 -4.98895e-08 3.56116e-08 0 0 0 0.0304617 0.0483084 -0.0878889 2.20464e-13 -1.02187e-12 1.01737e-12 6.55089e+06 2.35486e+07 9.67865e+06 
22 1 8 6.075e-09 -1.21574e-09 -2.46324e-08 2.52955e-08 0 0 0 0.0198169 -0.000978089 0.0200638 8.57749e-13 2.12864e-11 2.68578e-12 3.28162e+06 342096 -2.21661e+06 
27 1 8 6.075e-09 1.69485e-09 -3.42877e-08 3.18579e-08 0 0 0 0.00919106 0.00493295 0.00924256 -2.66519e-11 -3.59586e-12 -2.21906e-11 -331976 1.09943e+06 -1.01013e+06 
28 1 1 2.575e-09 6.69455e-09 -3.84283e-08 2.62902e-08 0 0 0 -0.00420059 0.022948 -0.021414 -8.34896e-13 1.07862e-12 4.30737e-14 3.84349e+06 -3.80296e+06 -2.50225e+06 
29 1 2 3.075e-09 1.18425e-08 -4.04973e-08 2.5903e-08 0 0 0 -0.0117262 -0.00187678 0.0120516 7.33684e-13 1.54668e-13 -8.70914e-13 -5.30572e+06 -6.53912e+06 -3.64878e+06 
31 1 8 6.075e-09 6.12659e-09 -2.56699e-08 3.9118e-08 0 0 0 0.0166359 0.00440863 0.011876 8.90912e-12 -8.61662e-12 1.2326e-11 -3.78925e+06 -84376.4 1.07604e+06 
24 1 11 8.575e-09 -3.42162e-09 -1.504e-08 3.60486e-08 0 0 0 0.00363533 -0.000573687 -0.000492106 2.67658e-12 -1.05389e-11 3.47407e-12 821794 -103014 -1.57513e+06 
25 1 4 4.075e-09 -5.5911e-10 -3.31908e-09 3.96402e-08 0 0 0 0.0207814 -0.00894051 -0.0190908 -5.96585e-12 1.66902e-12 -2.04352e-12 -3.09442e+06 -1.1183e+06 4.08248e+06 
20 1 13 1.0075e-08 1.92013e-08 -7.85147e-09 4.68055e-08 0 0 0 -0.00103914 0.00191341 -6.40682e-05 -2.00003e-12 2.09012e-11 1.35482e-11 -361971 -260223 160421 
2 1 7 5.575e-09 -3.42733e-08 1.64065e-08 3.19835e-08 0 0 0 0.0180009 0.00919001 -0.00800846 9.26495e-13 2.45122e-12 -3.94934e-14 70016.9 -818255 -583938 
7 1 8 6.075e-09 -1.23099e-08 1.56502e-08 4.8234e-08 0 0 0 -0.00858639 0.0078939 0.0206188 2.35392e-12 4.97326e-12 2.41439e-13 -947037 -2.19139e+06 1.2771e+06 
15 1 8 6.075e-09 1.29709e-08 1.17801e-08 3.23983e-08 0 0 0 -0.0152813 0.00223487 -0.00662101 2.47688e-12 2.56916e-12 -1.78486e-12 -393630 -453911 748731 
17 1 7 5.575e-09 1.71191e-08 4.28818e-09 2.4552e-08 0 0 0 0.000724939 0.000652947 0.00452825 -8.84008e-13 2.33771e-12 2.27455e-12 -233733 -1.97267e+06 487180 
16 1 5 4.575e-09 2.09039e-08 1.27426e-08 3.92653e-08 0 0 0 -0.00474483 -0.00393786 -0.0201273 6.83196e-13 1.44452e-12 -3.32551e-13 1.22422e+06 4.15341e+06 -1.50053e+06 
19 1 12 9.075e-09 6.48379e-09 6.37601e-09 4.49488e-08 0 0 0 -0.00055511 -0.0119595 -0.00732639 1.04803e-11 -2.01428e-11 -6.33182e-12 374252 1.0225e+06 256079 
18 1 3 3.575e-09 2.82873e-08 9.49088e-09 3.96982e-08 0 0 0 -0.00200641 0.00245617 -0.0124584 3.59453e-13 9.49712e-14 2.12243e-13 4.9637e+06 -9.42629e+06 4.08873e+06 
1 1 1 2.575e-09 -3.06368e-08 2.35833e-08 3.22476e-08 0 0 0 0.00716131 0.0102504 -0.0194843 9.82479e-13 1.388e-12 7.14266e-14 2.59347e+06 4.29537e+06 1.38767e+06 
3 1 3 3.575e-09 -2.97263e-08 2.85081e-08 3.5621e-08 0 0 0 -0.00981435 -0.0128144 0.00991513 1.45135e-12 -3.31051e-12 2.34492e-12 3.33915e+06 -3.1034e+07 -1.52797e+07 
4 1 2 3.075e-09 -2.5965e-08 2.97507e-08 4.08576e-08 0 0 0 -0.0170818 -0.0362216 0.0212574 5.85366e-13 -3.57355e-12 1.4203e-12 -1.50522e+07 2.70619e+07 -5.07675e+06 
5 1 2 3.075e-09 -2.00535e-08 2.90176e-08 4.19136e-08 0 0 0 0.00438182 -0.0579165 -0.100337 3.89814e-13 -2.48436e-12 -1.18613e-12 -3.32932e+07 2.23155e+07 -7.59295e+06 
6 1 4 4.075e-09 -1.52147e-08 2.45038e-08 4.43424e-08 0 0 0 0.0130697 0.000368382 -0.00910441 -1.25375e-12 -3.36958e-12 1.97693e-12 5.66936e+06 -3.13807e+07 8.43123e+06 
11 1 6 5.075e-09 -2.43663e-10 9.04375e-09 5.74465e-08 0 0 0 -0.0302098 0.0103804 0.011702 -1.14115e-11 3.96473e-12 -7.16776e-12 8.42524e+06 1.52202e+07 -8.07901e+06 
12 1 4 4.075e-09 -5.40398e-09 8.51221e-09 5.00282e-08 0 0 0 -0.0107113 0.0252777 0.0187543 -9.03088e-13 1.51915e-12 -1.70797e-12 -1.05716e+07 -8.43261e+06 5.26679e+06 
8 1 4 4.075e-09 1.62143e-08 1.81719e-08 5.13721e-08 0 0 0 0.00897134 0.00901955 -0.00369053 6.48665e-13 5.8638e-13 -3.32901e-13 1.04714e+06 1.22627e+06 2.88775e+06 
13 1 10 7.575e-09 -1.50853e-09 3.5093e-08 6.43219e-08 0 0 0 0.00343771 -0.00108267 0.00388761 3.28474e-13 -2.63651e-12 -2.277e-12 -671167 -393383 245868 
14 1 4 4.075e-09 -1.20222e-08 3.30356e-08 6.86547e-08 0 0 0 0.00534325 0.00204318 0.013663 4.26183e-13 -8.10031e-13 -1.77034e-13 1.39608e+07 2.66755e+06 -6.30409e+06 
9 1 5 4.575e-09 1.53211e-08 2.61898e-08 4.85979e-08 0 0 0 -0.0101527 0.0095561 0.00220828 1.35516e-12 -1.04031e-12 2.06297e-12 1.20502e+06 1.06671e+06 3.27897e+06 
10 1 12 9.075e-09 4.5637e-09 2.21574e-08 5.58453e-08 0 0 0 -0.00330462 -0.00136504 -0.00535905 5.8683e-13 1.53586e-14 9.99468e-13 -621356 -848458 -1.3368e+06 
