ITEM: TIMESTEP
400000
ITEM: NUMBER OF ATOMS
31
ITEM: BOX BOUNDS mm mm ss
-8.47369e-08 8.47369e-08
-8.47369e-08 8.47369e-08
-2.01588e-11 1.14741e-07
ITEM: ATOMS id mol type radius x y z ix iy iz vx vy vz fx fy fz omegax omegay omegaz 
21 1 4 4.075e-09 -5.71755e-09 -3.17833e-08 2.22616e-08 0 0 0 -0.0103904 0.00931348 -0.0233527 2.42383e-12 1.05005e-11 -6.38676e-13 -8.94078e+06 4.12396e+06 1.70659e+07 
1 1 1 2.575e-09 -2.83858e-08 8.77721e-09 2.10953e-08 0 0 0 -0.00413766 0.0260294 0.00740609 -4.58372e-13 1.46741e-12 7.9849e-14 6.546e+06 3.03678e+06 4.71247e+06 
3 1 3 3.575e-09 -2.96476e-08 1.46712e-08 2.1457e-08 0 0 0 0.00860583 0.0308484 0.0225539 -1.11755e-12 -1.912e-12 2.27783e-12 -4.98016e+06 8.65081e+06 -8.23267e+06 
17 1 7 5.575e-09 1.82837e-08 4.56249e-10 2.25187e-08 0 0 0 -0.00152503 0.0103603 0.00463996 5.03163e-14 1.67644e-12 1.78241e-12 44681.4 -2.36583e+06 509080 
29 1 2 3.075e-09 1.67292e-08 -4.31644e-08 3.34214e-08 0 0 0 0.0377315 -0.00922331 -0.037108 -6.47474e-12 4.35697e-12 4.43537e-12 730956 2.51596e+06 1.24464e+06 
30 1 9 6.575e-09 1.68452e-08 -4.78505e-08 4.1768e-08 0 0 0 -0.00705199 -0.00485789 -0.0252256 -2.93112e-12 6.52374e-13 -2.02346e-12 181521 1.64235e+06 1.33912e+06 
23 1 6 5.075e-09 1.14162e-08 -2.33551e-08 2.39703e-08 0 0 0 0.00313126 -0.000413251 0.00505791 1.44891e-12 -2.49805e-12 3.3355e-12 4.23223e+06 779916 -4.06987e+06 
28 1 1 2.575e-09 1.1483e-08 -4.20419e-08 3.19553e-08 0 0 0 0.0283968 -0.0106304 -0.0343934 1.43453e-13 -1.95612e-12 2.49182e-12 -229520 -6.15807e+06 2.1128e+06 
22 1 8 6.075e-09 2.60333e-09 -2.9225e-08 2.726e-08 0 0 0 -0.00180409 0.00620742 -0.00841234 -1.71969e-12 -2.35482e-12 -2.31065e-12 -9.57435e+06 2.47203e+06 7.38299e+06 
27 1 8 6.075e-09 5.43772e-09 -3.73047e-08 3.57183e-08 0 0 0 -0.0129743 -0.0099233 -0.0347899 4.4952e-12 -6.5799e-12 -6.38599e-12 -5.00439e+06 1.50198e+06 4.58436e+06 
31 1 8 6.075e-09 8.62257e-09 -2.7222e-08 4.16081e-08 0 0 0 0.00195959 -0.00508373 -0.012422 -2.23804e-13 -7.09686e-12 2.78407e-12 -1.18502e+06 -38912.2 287543 
24 1 11 8.575e-09 -1.23149e-09 -1.80933e-08 3.58663e-08 0 0 0 -0.00625918 0.000247102 -0.00596086 2.30228e-12 8.26712e-13 -1.53118e-13 521587 -125958 -488022 
25 1 4 4.075e-09 2.55536e-10 -5.63676e-09 3.69134e-08 0 0 0 0.0199627 -0.00727214 0.00357215 2.26425e-13 -5.49131e-14 -2.39427e-12 725324 834482 -809007 
20 1 13 1.0075e-08 1.90837e-08 -7.10865e-09 4.57283e-08 0 0 0 0.00124976 -0.0078853 0.000536084 3.21834e-12 1.98826e-12 5.83157e-12 537073 232431 -88090.6 
2 1 7 5.575e-09 -3.05656e-08 1.29262e-09 2.31024e-08 0 0 0 -0.00306294 0.0194031 0.00176006 2.13015e-12 1.57442e-12 -1.80492e-12 1.0023e+06 -648958 -1.27203e+06 
4 1 2 3.075e-09 -2.7886e-08 1.91085e-08 2.59647e-08 0 0 0 -0.000371716 0.0136931 0.0346704 2.53258e-12 -2.67823e-12 1.89965e-12 8.88956e+06 -1.93619e+07 -5.26045e+06 
5 1 2 3.075e-09 -2.26364e-08 2.10352e-08 2.82727e-08 0 0 0 0.00928015 -0.0268154 0.0351369 1.01611e-12 1.6444e-12 -7.15031e-13 -1.08149e+07 2.26438e+07 -3.28264e+06 
7 1 8 6.075e-09 -1.42229e-08 1.26412e-08 3.97069e-08 0 0 0 0.00277261 0.0032214 0.0224702 -4.24407e-12 4.26037e-12 2.17655e-12 593090 648839 1.85688e+06 
6 1 4 4.075e-09 -1.77917e-08 1.94244e-08 3.31328e-08 0 0 0 0.0292478 -0.0058903 0.0163402 -7.26013e-13 -3.8368e-12 1.51587e-12 991172 -7.49528e+06 -1.41659e+06 
12 1 4 4.075e-09 -6.74333e-09 7.50151e-09 4.41228e-08 0 0 0 -0.0123911 0.0157589 -0.00149976 -4.32648e-12 3.64295e-13 -2.35289e-12 -3.74523e+06 -3.39498e+06 2.4523e+06 
15 1 8 6.075e-09 1.28186e-08 9.28051e-09 2.77302e-08 0 0 0 -0.00637758 0.00753587 0.000716719 -4.45241e-13 1.05021e-12 -2.59053e-12 577426 299225 -797132 
16 1 5 4.575e-09 1.95579e-08 1.27425e-08 3.50517e-08 0 0 0 0.00120501 -0.0170623 0.0030131 1.59599e-12 -1.46193e-12 -2.00134e-12 2.05953e+06 2.20114e+06 -2.03528e+06 
19 1 12 9.075e-09 5.74605e-09 5.67677e-09 4.06061e-08 0 0 0 0.00659964 -0.00479435 0.00328633 9.49977e-14 -5.4055e-13 -2.07727e-12 226383 -187694 -545496 
8 1 4 4.075e-09 1.2869e-08 2.10039e-08 4.50005e-08 0 0 0 0.00479038 -0.0146409 0.0176198 7.23768e-13 2.38242e-12 7.67002e-13 476914 -206754 -1.49321e+06 
18 1 3 3.575e-09 2.65726e-08 1.01824e-08 3.8135e-08 0 0 0 -0.00192809 -0.00998992 0.0134901 8.11972e-13 6.04484e-13 1.24145e-12 6.29805e+06 -8.7135e+06 9.01197e+06 
9 1 5 4.575e-09 1.12841e-08 2.80706e-08 4.04921e-08 0 0 0 0.00366313 -0.0080709 0.0245527 1.89685e-12 4.83337e-13 1.40909e-12 1.21358e+06 1.07106e+06 566820 
32 1 2 3.075e-09 2.53437e-08 -4.9419e-08 4.59109e-08 0 0 0 -0.00788862 -0.0235255 -0.029883 -7.77283e-14 8.68085e-13 -1.61742e-12 1.26064e+07 -2.65136e+06 6.17897e+06 
11 1 6 5.075e-09 -3.08618e-09 1.11169e-08 5.15723e-08 0 0 0 -0.0226841 -0.00813118 -0.00141942 -8.9557e-12 -1.29454e-12 -9.92534e-12 6.40659e+06 1.24615e+07 -8.75212e+06 
13 1 10 7.575e-09 -7.42343e-09 3.76125e-08 5.34431e-08 0 0 0 0.00754649 -0.00929988 0.02484 -1.32817e-12 -3.23077e-12 -6.74178e-12 958359 -660563 1.02102e+06 
14 1 4 4.075e-09 -1.80787e-08 3.50495e-08 5.71089e-08 0 0 0 0.0109044 -0.0151253 0.0285783 -2.35946e-13 5.04507e-13 -8.36782e-13 977519 147869 -1.50622e+06 
10 1 12 9.075e-09 4.43607e-10 2.41583e-08 4.76859e-08 0 0 0 0.00428138 -0.010802 0.0132621 7.28757e-12 9.71803e-13 1.19793e-11 99868.7 -100417 -266184 
