ITEM: TIMESTEP
450000
ITEM: NUMBER OF ATOMS
31
ITEM: BOX BOUNDS mm mm ss
-8.47369e-08 8.47369e-08
-8.47369e-08 8.47369e-08
-2.01588e-11 1.26743e-07
ITEM: ATOMS id mol type radius x y z ix iy iz vx vy vz fx fy fz omegax omegay omegaz 
29 1 2 3.075e-09 1.66107e-08 -4.32036e-08 3.28463e-08 0 0 0 -0.0199939 -0.0102595 -0.0207709 4.85081e-12 -2.89953e-13 -1.4609e-12 -2.35341e+06 -1.59054e+07 815710 
30 1 9 6.575e-09 1.67407e-08 -4.80073e-08 4.11253e-08 0 0 0 0.00103184 -0.00867744 -0.0245539 2.26098e-12 -9.67167e-13 2.85733e-12 66218.8 -2.35971e+06 -2.18016e+06 
21 1 4 4.075e-09 -5.84311e-09 -3.16123e-08 2.19236e-08 0 0 0 -0.0129163 0.00730295 -0.0222278 -3.84565e-14 5.9784e-12 -3.54785e-12 -3.60235e+06 1.34811e+06 1.68672e+06 
23 1 6 5.075e-09 1.13172e-08 -2.32587e-08 2.37002e-08 0 0 0 -0.0143829 0.00753193 -0.021326 2.10455e-12 -2.33996e-12 4.55491e-12 -4.72882e+06 3.00479e+06 1.87201e+06 
28 1 1 2.575e-09 1.13618e-08 -4.2028e-08 3.14334e-08 0 0 0 -0.0258686 0.00553011 -0.0315032 3.38615e-12 -1.74988e-12 -4.04922e-12 -313478 1.07851e+07 -1.61217e+06 
22 1 8 6.075e-09 2.50005e-09 -2.91528e-08 2.69344e-08 0 0 0 0.00477503 -0.000736743 -0.00744991 5.0149e-12 2.11212e-11 1.13537e-11 7.09281e+06 -963400 -4.22648e+06 
27 1 8 6.075e-09 5.3394e-09 -3.73373e-08 3.52894e-08 0 0 0 -0.0107071 0.00339986 -0.0111295 -2.89901e-11 -1.16328e-11 -2.99742e-11 2.53382e+06 -169098 -2.33331e+06 
31 1 8 6.075e-09 8.55734e-09 -2.73306e-08 4.12903e-08 0 0 0 -0.000198665 3.96635e-05 -0.00961887 1.23502e-11 -3.4119e-12 1.11949e-11 3.82831e+06 516949 -1.78531e+06 
24 1 11 8.575e-09 -1.28813e-09 -1.81124e-08 3.56773e-08 0 0 0 -0.000624458 0.000366943 -0.00766685 -9.72268e-13 -8.19395e-13 9.72147e-12 786468 -118927 260655 
25 1 4 4.075e-09 2.44501e-10 -5.67735e-09 3.69005e-08 0 0 0 -0.0118003 0.0041201 0.00274164 3.46053e-12 -2.35664e-12 1.45562e-12 735394 1.54001e+06 1.87433e+06 
1 1 1 2.575e-09 -2.84633e-08 9.29981e-09 2.12937e-08 0 0 0 -0.00773192 0.0218418 0.0081652 1.23893e-12 1.47238e-12 -1.22728e-12 -1.62725e+06 4.90927e+06 -5.21147e+06 
3 1 3 3.575e-09 -2.96805e-08 1.51891e-08 2.18376e-08 0 0 0 0.00571007 0.0260489 0.0226387 -8.48084e-13 -3.13761e-13 3.19039e-12 8.03996e+06 -1.41017e+07 169760 
2 1 7 5.575e-09 -3.06741e-08 1.78412e-09 2.31445e-08 0 0 0 -0.00416677 0.0184229 0.0020826 5.9788e-13 -1.32689e-12 -7.30012e-13 184168 -84062.4 -148109 
4 1 2 3.075e-09 -2.78645e-08 1.949e-08 2.64546e-08 0 0 0 0.000770333 0.011616 0.0420525 7.9645e-13 4.48422e-13 7.17217e-13 -558223 1.90705e+07 6.83744e+06 
6 1 4 4.075e-09 -1.77275e-08 1.95468e-08 3.35774e-08 0 0 0 8.62042e-06 0.009192 0.00666023 -9.57542e-13 -1.98351e-12 1.21074e-12 595081 -3.79884e+06 -1.25003e+06 
7 1 8 6.075e-09 -1.41642e-08 1.26321e-08 4.0016e-08 0 0 0 -0.00887769 -0.00913461 0.00814095 5.086e-12 5.35557e-13 6.21311e-12 -96649.7 982236 -685162 
17 1 7 5.575e-09 1.82496e-08 5.42691e-10 2.25187e-08 0 0 0 -0.000811491 0.0022346 0.000867988 -8.66997e-13 3.74395e-13 -2.881e-13 587345 1.32917e+06 -69850.9 
15 1 8 6.075e-09 1.28338e-08 9.30416e-09 2.78852e-08 0 0 0 -0.000653954 0.00160058 0.00458554 1.60367e-12 -7.50145e-13 1.52274e-12 339057 -448710 489237 
16 1 5 4.575e-09 1.96132e-08 1.26117e-08 3.5241e-08 0 0 0 0.00518495 -0.0134425 0.00424182 -5.86335e-13 1.41953e-12 1.32397e-12 2.4464e+06 2.41141e+06 -1.39446e+06 
19 1 12 9.075e-09 5.78261e-09 5.56587e-09 4.07345e-08 0 0 0 -0.0010756 0.000259653 0.00319432 5.83387e-12 -9.80151e-12 -6.07754e-12 298410 -412610 450406 
18 1 3 3.575e-09 2.66278e-08 9.94652e-09 3.82343e-08 0 0 0 0.00608515 -0.00198163 0.0115617 2.03279e-13 4.93889e-15 -2.56705e-13 -3.16748e+06 -4.68246e+06 4.70573e+06 
5 1 2 3.075e-09 -2.25874e-08 2.13104e-08 2.87861e-08 0 0 0 0.0166488 0.0386537 -0.00592154 1.30755e-12 1.53575e-13 -2.33229e-12 5.00669e+06 -113218 6.01618e+06 
9 1 5 4.575e-09 1.14124e-08 2.78757e-08 4.09202e-08 0 0 0 -0.00144242 -0.0122566 0.00745118 -1.11659e-12 -6.02784e-13 2.10952e-12 755615 252172 2.44437e+06 
32 1 2 3.075e-09 2.52476e-08 -4.96512e-08 4.52214e-08 0 0 0 0.00280524 0.00148657 -0.0213257 1.68478e-13 -1.11806e-12 7.24201e-13 1.1256e+07 5.40801e+06 7.07919e+06 
20 1 13 1.0075e-08 1.91014e-08 -7.29734e-09 4.57092e-08 0 0 0 0.00194732 -0.0115695 -0.000795482 -7.05659e-12 3.40895e-12 -3.0413e-12 -54623.6 -150377 433066 
12 1 4 4.075e-09 -6.6909e-09 7.38243e-09 4.43115e-08 0 0 0 0.0140527 -0.00112172 0.014846 1.26573e-12 3.46314e-12 1.57929e-12 3.2811e+06 2.83474e+06 -1.37966e+06 
11 1 6 5.075e-09 -2.98648e-09 1.08316e-08 5.18163e-08 0 0 0 0.0323146 -0.015842 0.0316274 -5.10441e-12 9.25137e-13 2.6329e-12 -2.00873e+06 -4.48913e+06 3.88556e+06 
8 1 4 4.075e-09 1.29804e-08 2.07437e-08 4.53307e-08 0 0 0 0.00440596 -0.0121666 0.0063586 6.00366e-13 4.66909e-13 4.88364e-13 99868.9 521439 717611 
13 1 10 7.575e-09 -7.24566e-09 3.73225e-08 5.40061e-08 0 0 0 0.00800384 -0.0102128 0.0258689 2.62667e-12 4.00182e-12 5.67178e-12 -53626.5 -636732 713944 
14 1 4 4.075e-09 -1.7899e-08 3.47428e-08 5.76659e-08 0 0 0 0.00666035 -0.0134282 0.0221631 1.0871e-12 -1.13244e-12 1.38907e-12 1.27759e+06 -98360.8 -1.13109e+06 
10 1 12 9.075e-09 5.73635e-10 2.39107e-08 4.80874e-08 0 0 0 0.00267831 -0.00943083 0.0128668 -9.33635e-12 -3.40431e-12 -1.70327e-11 588166 -1.59897e+06 -1.22457e+06 
