ITEM: TIMESTEP
45000
ITEM: NUMBER OF ATOMS
31
ITEM: BOX BOUNDS mm mm ss
-8.47369e-08 8.47369e-08
-8.47369e-08 8.47369e-08
-2.01588e-11 9.51807e-08
ITEM: ATOMS id mol type radius x y z ix iy iz vx vy vz fx fy fz omegax omegay omegaz 
21 1 4 4.075e-09 -1.03108e-08 -2.53149e-08 2.10957e-08 0 0 0 -0.0161746 0.0464477 -0.0272127 2.9798e-12 1.59017e-11 2.55472e-12 1.97971e+07 1.44653e+06 6.35035e+06 
23 1 6 5.075e-09 7.7686e-09 -1.88831e-08 2.22852e-08 0 0 0 -0.000430223 -0.026401 0.0337211 6.13313e-12 -4.58842e-12 3.52578e-12 1.43842e+07 287152 -7.12562e+06 
30 1 9 6.575e-09 1.24127e-08 -4.68947e-08 3.29894e-08 0 0 0 0.0376701 -0.0301211 -0.0186214 4.22561e-12 -4.61864e-14 -2.08342e-12 -1.07926e+07 -9.61918e+06 -7.25699e+06 
32 1 2 3.075e-09 2.11359e-08 -4.99003e-08 3.55821e-08 0 0 0 -0.0128159 -0.0785937 0.0960048 -6.13829e-13 -1.3435e-12 1.75668e-12 -3.19297e+07 -1.67005e+06 -1.02722e+07 
22 1 8 6.075e-09 -1.22096e-09 -2.46314e-08 2.52999e-08 0 0 0 -0.0130421 0.00502035 0.006156 -6.30574e-12 1.1141e-11 4.17952e-12 -3.51198e+06 220700 2.29617e+06 
27 1 8 6.075e-09 1.68829e-09 -3.42886e-08 3.18601e-08 0 0 0 -0.027021 -0.0101688 -0.017342 -8.65281e-12 -1.12353e-11 -1.57396e-11 -7.513e+06 1.53629e+06 3.76525e+06 
28 1 1 2.575e-09 6.68358e-09 -3.84295e-08 2.62886e-08 0 0 0 0.020591 -0.046081 0.0207297 -1.17854e-12 -1.6865e-13 -3.70038e-13 -1.45253e+07 -2.31098e+07 -5.66673e+06 
29 1 2 3.075e-09 1.18302e-08 -4.04998e-08 2.58897e-08 0 0 0 0.0239281 -0.0498017 -0.0356643 2.17009e-13 -6.07806e-13 -1.2414e-12 9.78174e+06 3.83997e+07 4.18431e+06 
31 1 8 6.075e-09 6.12503e-09 -2.56732e-08 3.912e-08 0 0 0 0.000932308 -0.000227808 -0.0102782 1.47174e-12 -9.99923e-12 4.53711e-12 -1.47194e+06 2.18477e+06 -103679 
24 1 11 8.575e-09 -3.42125e-09 -1.50402e-08 3.60551e-08 0 0 0 -0.0119626 0.0121507 -0.00288925 -2.4892e-12 -5.29416e-13 2.37957e-12 -1.34062e+06 1.00032e+06 688286 
25 1 4 4.075e-09 -5.55033e-10 -3.32023e-09 3.96469e-08 0 0 0 -0.0186049 0.0155797 0.020171 7.26788e-12 -1.61195e-12 -1.18745e-12 1.49523e+06 958514 -3.16451e+06 
20 1 13 1.0075e-08 1.92085e-08 -7.85058e-09 4.68107e-08 0 0 0 0.00141579 -0.00107726 0.00147474 -7.60207e-12 -4.88797e-12 -5.95934e-12 51184.1 48686.9 -347638 
2 1 7 5.575e-09 -3.42765e-08 1.63737e-08 3.19875e-08 0 0 0 -0.00439632 -0.0343282 0.00919433 -7.62778e-14 -4.05637e-12 -4.82663e-12 -221211 442889 760142 
15 1 8 6.075e-09 1.29749e-08 1.17781e-08 3.24014e-08 0 0 0 0.00438382 -0.000570315 0.00442867 -1.0735e-12 -7.00831e-13 -1.03568e-12 -485046 396854 -155548 
17 1 7 5.575e-09 1.71231e-08 4.28531e-09 2.45562e-08 0 0 0 0.00431592 0.000472299 0.00178781 7.19129e-14 -1.54547e-12 2.54895e-13 -485126 48221.6 15113.1 
16 1 5 4.575e-09 2.09083e-08 1.27446e-08 3.92674e-08 0 0 0 0.00863056 -0.00253631 7.30409e-05 -2.51259e-13 -1.69111e-12 -1.83031e-12 -1.15666e+06 759544 -892430 
19 1 12 9.075e-09 6.48932e-09 6.37517e-09 4.49532e-08 0 0 0 -0.00284922 0.0197764 0.0113885 3.27591e-12 1.23109e-11 2.74022e-12 -1.26359e+06 -1.04915e+06 160164 
18 1 3 3.575e-09 2.82926e-08 9.49478e-09 3.96978e-08 0 0 0 0.00963434 0.00232362 0.02088 2.53995e-13 2.9622e-13 1.22953e-12 2.48355e+06 -7.31445e+06 2.2712e+06 
1 1 1 2.575e-09 -3.06417e-08 2.35515e-08 3.22433e-08 0 0 0 0.00981768 -0.0372625 0.00847787 3.05984e-13 1.70373e-12 4.27729e-13 -8.45817e+06 -6.77379e+06 -3.05907e+06 
3 1 3 3.575e-09 -2.97319e-08 2.84808e-08 3.561e-08 0 0 0 0.00960285 -0.0277393 0.000871091 -2.3296e-12 4.26616e-13 1.75875e-12 5.48854e+06 1.26446e+07 1.23536e+07 
4 1 2 3.075e-09 -2.59708e-08 2.97293e-08 4.08453e-08 0 0 0 0.0138527 -0.0169747 -0.00645207 4.49402e-14 3.37939e-12 -7.04427e-13 1.34468e+07 1.08008e+06 1.47322e+07 
5 1 2 3.075e-09 -2.00585e-08 2.90003e-08 4.18989e-08 0 0 0 0.000423792 0.0226576 0.0569052 -6.65279e-13 3.19097e-12 3.60296e-12 1.89986e+07 -2.30014e+07 3.79696e+06 
6 1 4 4.075e-09 -1.52174e-08 2.44924e-08 4.43335e-08 0 0 0 -0.000860401 -0.00100216 -0.00361444 -2.16013e-12 -1.46883e-12 6.55722e-13 -4.2991e+06 1.70523e+07 -3.74541e+06 
7 1 8 6.075e-09 -1.23087e-08 1.56433e-08 4.8232e-08 0 0 0 -0.0021311 -0.0142058 -0.0186569 7.63787e-12 -6.05777e-12 -3.2013e-12 -1.74159e+06 -1.0286e+06 -2.99666e+06 
11 1 6 5.075e-09 -2.40538e-10 9.05139e-09 5.74502e-08 0 0 0 0.0421691 -0.00904335 -0.00269367 1.69519e-12 -3.59926e-12 7.20522e-12 -7.60153e+06 -1.57474e+07 7.2072e+06 
12 1 4 4.075e-09 -5.39921e-09 8.51024e-09 5.00317e-08 0 0 0 0.0131927 -0.0212834 -0.00552071 2.26198e-12 9.27393e-13 2.79567e-12 9.46056e+06 9.41128e+06 -6.09179e+06 
8 1 4 4.075e-09 1.62138e-08 1.81839e-08 5.13725e-08 0 0 0 -0.0122027 -0.00828021 -0.00236909 2.06871e-13 1.64412e-13 -1.40428e-12 -1.95966e+06 -1.20784e+06 -2.37621e+06 
13 1 10 7.575e-09 -1.5189e-09 3.51041e-08 6.43091e-08 0 0 0 -0.00363939 0.00709635 -0.00875263 -2.12206e-12 3.53162e-12 6.04603e-12 278940 577137 -164109 
14 1 4 4.075e-09 -1.20319e-08 3.3044e-08 6.86422e-08 0 0 0 -0.00382849 0.0104918 -0.012575 -3.51474e-13 -1.22908e-12 6.33842e-13 1.24784e+07 2.9228e+06 -5.3432e+06 
9 1 5 4.575e-09 1.53166e-08 2.61992e-08 4.85921e-08 0 0 0 0.00167483 -0.010457 -0.0138771 -1.80172e-12 -2.0751e-12 -2.00182e-12 -1.57642e+06 -1.47826e+06 -1.78307e+06 
10 1 12 9.075e-09 4.56039e-09 2.21664e-08 5.5841e-08 0 0 0 0.00188089 0.00496691 0.00221715 -3.76325e-13 4.46832e-12 -4.69819e-12 656701 388060 750133 
