ITEM: TIMESTEP
5000
ITEM: NUMBER OF ATOMS
31
ITEM: BOX BOUNDS mm mm ss
-8.47369e-08 8.47369e-08
-8.47369e-08 8.47369e-08
-2.01588e-11 1.05684e-07
ITEM: ATOMS id mol type radius x y z ix iy iz vx vy vz fx fy fz omegax omegay omegaz 
21 1 4 4.075e-09 -1.03178e-08 -2.52682e-08 2.10446e-08 0 0 0 0.0564176 0.0545041 -0.00268165 4.17577e-12 7.5023e-13 1.46115e-12 1.06568e+07 -1.95017e+06 7.09911e+06 
30 1 9 6.575e-09 1.23974e-08 -4.68908e-08 3.29575e-08 0 0 0 -0.0232649 0.0447368 -0.034405 -6.91839e-12 8.93954e-12 -4.82563e-13 -1.58101e+06 -1.93667e+07 -5.96128e+06 
32 1 2 3.075e-09 2.1128e-08 -4.98845e-08 3.55391e-08 0 0 0 -0.0937013 0.0026066 0.155593 -5.26321e-13 2.66811e-13 -1.00951e-12 -1.65751e+08 3.74055e+07 -5.37488e+07 
22 1 8 6.075e-09 -1.23471e-09 -2.46032e-08 2.52663e-08 0 0 0 0.0435469 -0.00734635 0.0202082 -6.10176e-12 -5.3182e-12 -6.28228e-12 -1.54559e+07 -3.83303e+06 1.24096e+07 
27 1 8 6.075e-09 1.65361e-09 -3.42709e-08 3.18204e-08 0 0 0 0.0509175 0.0194595 0.0540906 1.22588e-11 2.54145e-12 1.65332e-11 -9.08922e+06 -3.60803e+06 7.78142e+06 
28 1 1 2.575e-09 6.65698e-09 -3.84155e-08 2.62584e-08 0 0 0 0.0601031 0.0400261 0.0519872 -1.5643e-12 1.27714e-13 1.40752e-12 3.76207e+06 1.27838e+07 1.62531e+06 
29 1 2 3.075e-09 1.18033e-08 -4.04883e-08 2.58655e-08 0 0 0 0.0623781 0.0712929 -0.0198483 -3.7627e-14 -1.19833e-12 -3.06882e-12 1.27408e+07 1.06846e+07 3.02227e+06 
31 1 8 6.075e-09 6.09099e-09 -2.56678e-08 3.90945e-08 0 0 0 0.00144164 0.0561314 0.0657416 -6.04958e-12 -3.55423e-12 -1.03513e-11 -7.4933e+06 -4.86223e+06 4.63035e+06 
24 1 11 8.575e-09 -3.43785e-09 -1.50196e-08 3.60278e-08 0 0 0 -0.0191022 0.00968679 -0.0181755 1.03319e-11 1.0901e-11 1.11689e-11 -2.82347e+06 -4.31179e+06 1.99874e+06 
25 1 4 4.075e-09 -5.55498e-10 -3.30847e-09 3.96363e-08 0 0 0 -0.0347562 0.0228664 -0.0102788 2.74565e-12 3.18389e-13 -3.33287e-13 2.29853e+06 -3.0246e+06 -6.01415e+06 
23 1 6 5.075e-09 7.76838e-09 -1.88666e-08 2.22696e-08 0 0 0 0.05409 -0.0138345 0.0497678 1.30715e-12 3.5223e-13 -1.13115e-12 300128 -1.59357e+06 3.13999e+06 
2 1 7 5.575e-09 -3.42709e-08 1.6412e-08 3.19816e-08 0 0 0 -0.0671212 -0.049941 -0.020758 3.15427e-13 -2.84441e-12 -2.94704e-12 4.15602e+06 -4.6577e+06 -5.53382e+06 
15 1 8 6.075e-09 1.29821e-08 1.17968e-08 3.24236e-08 0 0 0 0.0140094 0.0182506 0.0256951 -1.54373e-12 -2.17664e-12 -8.03815e-13 3.27793e+06 2.57743e+06 -3.15629e+06 
16 1 5 4.575e-09 2.09155e-08 1.27475e-08 3.92918e-08 0 0 0 0.0426933 -0.0379662 0.000642658 -2.41696e-12 3.23295e-14 7.59968e-13 5.30366e+06 6.04874e+06 -3.78589e+06 
17 1 7 5.575e-09 1.71305e-08 4.31848e-09 2.45646e-08 0 0 0 -0.0388545 0.0322139 -0.0205943 -1.0589e-12 -5.64675e-13 5.42833e-13 888586 1.06524e+07 2.05782e+06 
18 1 3 3.575e-09 2.82998e-08 9.49661e-09 3.97149e-08 0 0 0 0.0263464 -0.0879593 -0.115757 -7.26141e-13 -1.69813e-13 -3.9204e-13 -212867 2.27694e+07 -9.53136e+06 
1 1 1 2.575e-09 -3.06317e-08 2.35869e-08 3.22547e-08 0 0 0 -0.0403843 -0.0706402 0.0270299 8.92758e-13 1.51831e-12 3.89285e-13 -2.46145e+06 -1.37436e+07 -8.33899e+06 
3 1 3 3.575e-09 -2.97197e-08 2.8505e-08 3.56374e-08 0 0 0 -0.0300978 -0.022787 -0.0510657 -2.249e-12 9.81942e-13 1.63735e-13 -1.77035e+07 1.91151e+07 2.88729e+06 
4 1 2 3.075e-09 -2.59588e-08 2.97388e-08 4.08763e-08 0 0 0 -0.0549604 -0.0513292 -0.0270094 -1.86975e-12 1.65381e-13 3.20111e-13 1.18967e+07 -3.60902e+07 -1.99083e+07 
5 1 2 3.075e-09 -2.00471e-08 2.90063e-08 4.19311e-08 0 0 0 -0.0600627 -0.0456157 0.0399133 -1.11839e-12 2.94462e-12 1.93492e-12 7.5983e+06 1.31144e+07 2.79587e+07 
20 1 13 1.0075e-08 1.92111e-08 -7.85633e-09 4.68047e-08 0 0 0 -0.0223124 -0.0259006 -0.0181477 9.25569e-13 -9.30623e-12 -2.80779e-12 3.07773e+06 2.04845e+06 -2.79386e+06 
7 1 8 6.075e-09 -1.23036e-08 1.56376e-08 4.82479e-08 0 0 0 -0.0137322 -0.00769482 -0.0159076 5.86182e-13 6.01023e-13 -3.56571e-12 2.31347e+06 -3.22004e+06 -1.27708e+06 
11 1 6 5.075e-09 -2.4147e-10 9.02776e-09 5.74639e-08 0 0 0 0.0396992 -0.01322 -0.00762037 9.61945e-12 5.01043e-12 8.04154e-12 -8.33245e+06 -6.16081e+06 7.17519e+06 
12 1 4 4.075e-09 -5.39709e-09 8.50041e-09 5.00421e-08 0 0 0 0.00326461 -0.0179441 -0.00606549 -3.01805e-12 -6.74523e-12 5.64804e-12 8.53032e+06 7.27955e+06 -7.67142e+06 
8 1 4 4.075e-09 1.62234e-08 1.81484e-08 5.13964e-08 0 0 0 0.0194122 0.00521148 0.00626331 -4.33093e-13 4.22733e-14 -4.21436e-12 -1.62082e+06 -625806 2.14389e+06 
19 1 12 9.075e-09 6.49289e-09 6.37241e-09 4.49643e-08 0 0 0 0.00101558 0.00529146 0.0125157 5.69308e-13 -4.71721e-12 -2.86437e-12 1.45487e+06 -1.45613e+06 -1.2328e+06 
6 1 4 4.075e-09 -1.52083e-08 2.44919e-08 4.43586e-08 0 0 0 0.0230715 0.0145648 0.00678442 1.86115e-12 3.32703e-12 3.66614e-13 2.0742e+06 -6.28626e+06 -2.23281e+06 
9 1 5 4.575e-09 1.53352e-08 2.61666e-08 4.86214e-08 0 0 0 0.0167364 -0.00469784 -0.0127461 -2.28735e-12 -1.79497e-12 -4.13478e-12 -3.27779e+06 -2.74492e+06 -1.21025e+06 
10 1 12 9.075e-09 4.57255e-09 2.21392e-08 5.5864e-08 0 0 0 0.0222204 -0.00394559 0.00904131 -4.28241e-12 -7.41727e-13 -9.34604e-12 773956 -214125 1.37843e+06 
13 1 10 7.575e-09 -1.49796e-09 3.50778e-08 6.4337e-08 0 0 0 0.00406333 0.00338873 -0.0101815 -1.80846e-12 2.13997e-12 7.13579e-12 -941960 1.14807e+06 1.60517e+06 
14 1 4 4.075e-09 -1.20132e-08 3.3023e-08 6.86671e-08 0 0 0 0.0106411 -0.0132317 -0.0045532 -1.57885e-12 -1.82899e-12 -2.1387e-12 2.9176e+07 7.68878e+06 -1.06426e+07 
