ITEM: TIMESTEP
50000
ITEM: NUMBER OF ATOMS
31
ITEM: BOX BOUNDS mm mm ss
-8.47369e-08 8.47369e-08
-8.47369e-08 8.47369e-08
-2.01588e-11 9.36802e-08
ITEM: ATOMS id mol type radius x y z ix iy iz vx vy vz fx fy fz omegax omegay omegaz 
21 1 4 4.075e-09 -1.03072e-08 -2.53129e-08 2.10954e-08 0 0 0 -0.0234757 0.0312572 0.0156544 4.36233e-12 6.82737e-13 4.91362e-13 -2.65481e+07 -1.56522e+06 1.61231e+06 
23 1 6 5.075e-09 7.77283e-09 -1.88852e-08 2.22879e-08 0 0 0 0.00907974 -0.0113412 0.0149305 3.98429e-12 1.84749e-12 -6.88129e-13 -1.80648e+06 2.19014e+06 -6815.82 
30 1 9 6.575e-09 1.24117e-08 -4.68989e-08 3.2999e-08 0 0 0 0.0497112 -0.00721265 -0.00525078 -5.75726e-12 5.19141e-12 1.63839e-12 -8.91872e+06 -9.51161e+06 -7.73396e+06 
32 1 2 3.075e-09 2.11299e-08 -4.991e-08 3.56023e-08 0 0 0 -0.00481749 -0.0564945 0.123176 -3.93124e-13 4.58847e-13 -5.35066e-13 -3.70238e+07 -5.13004e+06 -1.59289e+07 
22 1 8 6.075e-09 -1.21783e-09 -2.46326e-08 2.53009e-08 0 0 0 -0.00593983 0.0158775 0.00497383 -5.85309e-12 4.73522e-13 -2.40888e-12 -3.73878e+06 337002 4.30949e+06 
27 1 8 6.075e-09 1.69094e-09 -3.42891e-08 3.18627e-08 0 0 0 -0.0398888 -0.00060473 -0.0126094 -3.94256e-12 -2.60349e-12 -7.46052e-12 -8.4408e+06 1.82822e+06 5.68355e+06 
28 1 1 2.575e-09 6.68846e-09 -3.8433e-08 2.6295e-08 0 0 0 0.00481399 -0.0435682 0.0431779 -1.07553e-12 1.02878e-12 -8.13964e-13 -2.90682e+07 -1.71554e+07 3.55978e+06 
29 1 2 3.075e-09 1.18345e-08 -4.05055e-08 2.58974e-08 0 0 0 0.0178722 -0.0124805 -0.00854181 6.0334e-13 -1.52415e-13 -1.5153e-12 1.31349e+07 3.40841e+07 1.18604e+07 
31 1 8 6.075e-09 6.12688e-09 -2.56724e-08 3.91216e-08 0 0 0 0.00448402 0.00180554 -0.00261545 -6.13631e-12 -6.12733e-12 1.04917e-12 -808348 2.43446e+06 -555031 
24 1 11 8.575e-09 -3.41968e-09 -1.50402e-08 3.60548e-08 0 0 0 0.000310585 -0.000266484 0.00614783 1.60805e-11 -3.82012e-12 8.69874e-12 -1.44461e+06 675412 845752 
25 1 4 4.075e-09 -5.54258e-10 -3.31969e-09 3.96454e-08 0 0 0 -0.0254026 0.00396318 0.00174318 -8.10407e-12 2.70475e-12 2.62419e-12 -2.90128e+06 -1.2851e+06 1.23064e+06 
20 1 13 1.0075e-08 1.92081e-08 -7.84762e-09 4.68112e-08 0 0 0 0.0017902 0.00418487 5.06806e-05 1.07353e-11 -8.82326e-12 -2.42337e-12 1.15451e+06 835597 -1.70194e+06 
2 1 7 5.575e-09 -3.42733e-08 1.63494e-08 3.19882e-08 0 0 0 -0.00460226 0.0117566 -0.00864858 1.54119e-12 1.77293e-12 8.21225e-15 -1.29174e+06 688640 1.38621e+06 
15 1 8 6.075e-09 1.29738e-08 1.17795e-08 3.24e-08 0 0 0 0.0112083 0.000945005 -0.00290084 -5.71026e-14 -8.99101e-13 1.12126e-12 -933836 -2.02517e+06 458326 
17 1 7 5.575e-09 1.71241e-08 4.28631e-09 2.45561e-08 0 0 0 -0.00274613 -0.00810078 0.000791441 7.30567e-13 1.10547e-12 -1.16675e-12 -402572 5.44774e+06 -205672 
16 1 5 4.575e-09 2.09067e-08 1.27476e-08 3.92663e-08 0 0 0 0.00130031 0.0125306 0.00621604 1.2974e-12 2.43633e-13 -5.84293e-13 -1.05084e+06 -1.08957e+06 -594208 
19 1 12 9.075e-09 6.48807e-09 6.37704e-09 4.49519e-08 0 0 0 0.00165888 -0.0103257 -0.00783659 -4.82573e-12 8.28186e-12 1.20887e-11 325598 1.97764e+06 -983201 
18 1 3 3.575e-09 2.82916e-08 9.49948e-09 3.96989e-08 0 0 0 -0.00906314 -0.0139618 -0.0328323 1.11439e-12 1.81435e-13 9.20372e-13 3.73907e+06 1.02958e+07 -6.32932e+06 
1 1 1 2.575e-09 -3.06447e-08 2.35306e-08 3.22422e-08 0 0 0 -0.0253416 0.021581 0.0101165 1.08987e-12 1.69898e-12 8.46877e-14 1.26785e+07 1.04924e+07 8.21221e+06 
3 1 3 3.575e-09 -2.9741e-08 2.84627e-08 3.56068e-08 0 0 0 0.0120789 0.0263725 -0.00530026 -3.15529e-13 -8.4663e-13 1.2174e-12 -1.23882e+07 5.57349e+06 -7.78567e+06 
4 1 2 3.075e-09 -2.59798e-08 2.97182e-08 4.08404e-08 0 0 0 0.0229385 0.0562201 -0.0226679 -2.49736e-12 -3.31574e-12 2.92503e-12 -1.29468e+07 -3.44015e+06 -1.19085e+07 
5 1 2 3.075e-09 -2.00673e-08 2.89956e-08 4.18979e-08 0 0 0 0.00274403 -0.00606671 0.000506561 -1.18341e-12 -4.23763e-13 -2.98374e-12 -1.44036e+07 1.01089e+06 -1.26638e+07 
6 1 4 4.075e-09 -1.52232e-08 2.44904e-08 4.43317e-08 0 0 0 -0.0167806 -0.00738018 0.012211 1.12242e-12 4.37735e-12 -2.95842e-12 4.29595e+06 6.55033e+06 5.28235e+06 
7 1 8 6.075e-09 -1.23111e-08 1.56426e-08 4.82307e-08 0 0 0 -0.00279754 0.00946339 0.00712249 -1.32386e-11 3.18386e-12 -8.10631e-12 722291 -605739 -208069 
11 1 6 5.075e-09 -2.41055e-10 9.05325e-09 5.74484e-08 0 0 0 -0.0212763 -0.000256678 -0.0188154 4.03572e-12 -1.44458e-12 -3.7996e-12 7.76273e+06 4.07347e+06 -7.87736e+06 
12 1 4 4.075e-09 -5.40054e-09 8.51093e-09 5.00305e-08 0 0 0 -0.0102734 0.00655043 -0.00880395 8.33848e-13 -2.40651e-12 -4.82464e-12 -1.2847e+06 -3.28002e+06 684168 
8 1 4 4.075e-09 1.62128e-08 1.81849e-08 5.13694e-08 0 0 0 0.00517308 0.0138509 0.00770289 -1.01627e-13 1.74263e-12 -1.08775e-12 423145 808527 1.69845e+06 
13 1 10 7.575e-09 -1.51832e-09 3.5106e-08 6.43074e-08 0 0 0 -0.000102708 -0.00405396 0.000900829 1.27264e-12 1.89356e-12 -7.33166e-12 538056 -670618 -777787 
14 1 4 4.075e-09 -1.2031e-08 3.30463e-08 6.86414e-08 0 0 0 -0.00291545 0.000965582 -0.00539988 4.0673e-13 -1.87918e-14 -1.44831e-12 1.31198e+07 2.13173e+06 -6.41157e+06 
9 1 5 4.575e-09 1.5316e-08 2.62002e-08 4.8589e-08 0 0 0 -0.00492351 0.0122323 0.00877059 -5.29503e-13 3.44112e-13 3.76624e-13 -386165 752984 211919 
10 1 12 9.075e-09 4.55996e-09 2.21682e-08 5.58386e-08 0 0 0 -0.00358819 -0.00429202 0.00186729 4.8003e-12 -6.33164e-12 1.68925e-11 -393470 961887 1.32107e+06 
