ITEM: TIMESTEP
55000
ITEM: NUMBER OF ATOMS
31
ITEM: BOX BOUNDS mm mm ss
-8.47369e-08 8.47369e-08
-8.47369e-08 8.47369e-08
-2.01588e-11 9.36802e-08
ITEM: ATOMS id mol type radius x y z ix iy iz vx vy vz fx fy fz omegax omegay omegaz 
21 1 4 4.075e-09 -1.03e-08 -2.53293e-08 2.10999e-08 0 0 0 0.0273026 0.0330275 -0.0232503 3.93281e-12 5.28659e-12 2.88431e-12 2.07817e+07 2.19867e+06 1.30202e+07 
23 1 6 5.075e-09 7.77657e-09 -1.88891e-08 2.22908e-08 0 0 0 -0.0119599 -0.00663039 -0.00747138 7.13736e-12 1.97423e-12 -1.12547e-12 -1.75945e+06 522232 2.51056e+06 
30 1 9 6.575e-09 1.2432e-08 -4.68922e-08 3.30177e-08 0 0 0 -0.0247823 0.0154657 0.00767144 -1.14593e-11 2.8546e-12 1.78002e-12 7.77093e+06 6.48479e+06 3.9723e+06 
32 1 2 3.075e-09 2.11512e-08 -4.98964e-08 3.56258e-08 0 0 0 0.0065482 0.0442516 -0.0630561 3.79091e-14 2.86837e-12 -1.17232e-12 3.30901e+07 -6.27516e+06 9.74537e+06 
22 1 8 6.075e-09 -1.21138e-09 -2.46398e-08 2.53057e-08 0 0 0 0.0146664 -0.00830509 0.0117731 -8.17789e-12 7.02205e-12 -9.28349e-12 -1.20764e+07 2.58013e+06 8.58724e+06 
27 1 8 6.075e-09 1.70092e-09 -3.42929e-08 3.18706e-08 0 0 0 0.0147576 -0.0199261 -0.00883808 3.97574e-12 2.45406e-12 2.22293e-12 -5.86709e+06 914849 6.72925e+06 
28 1 1 2.575e-09 6.70234e-09 -3.84368e-08 2.63063e-08 0 0 0 0.0144635 0.0179463 -0.0572872 -6.02274e-13 8.42326e-13 1.61563e-12 2.65016e+06 6.53403e+06 3.1159e+06 
29 1 2 3.075e-09 1.18512e-08 -4.05032e-08 2.59124e-08 0 0 0 0.0244209 0.0312711 0.0192621 6.86053e-13 5.86101e-13 -5.15282e-13 -6.18675e+06 -2.72247e+07 -2.56773e+06 
31 1 8 6.075e-09 6.13256e-09 -2.56722e-08 3.91273e-08 0 0 0 0.00754824 -0.0155883 0.0227367 -2.35216e-12 -4.35838e-12 -4.08962e-14 -3.75989e+06 -1.27679e+06 1.84473e+06 
24 1 11 8.575e-09 -3.41802e-09 -1.50447e-08 3.60563e-08 0 0 0 -0.00608986 -0.00545771 -0.00469205 9.02173e-12 -1.31537e-11 5.93062e-12 518271 -746588 -705838 
25 1 4 4.075e-09 -5.57983e-10 -3.32163e-09 3.96433e-08 0 0 0 0.0327394 -0.0132674 -0.008509 1.90027e-12 -9.66025e-13 -4.85818e-12 1.53084e+06 2.06483e+06 112397 
20 1 13 1.0075e-08 1.92038e-08 -7.8467e-09 4.68068e-08 0 0 0 -0.00216906 -0.00114562 0.00152215 -1.08114e-11 2.30053e-11 1.32364e-11 35971.2 130064 563881 
2 1 7 5.575e-09 -3.42804e-08 1.6386e-08 3.1979e-08 0 0 0 0.00113166 0.00898306 0.0135158 5.89631e-13 -1.30085e-12 -2.47353e-12 5.89039e+06 -2.71249e+06 1.38946e+06 
15 1 8 6.075e-09 1.2968e-08 1.17795e-08 3.23949e-08 0 0 0 -0.00530921 0.00514485 0.00134273 -1.21268e-12 1.51809e-12 -2.47824e-12 1.63962e+06 3.82923e+06 -1.14354e+06 
17 1 7 5.575e-09 1.71179e-08 4.28597e-09 2.45511e-08 0 0 0 -0.00551389 0.00588221 -0.000116914 -1.1917e-12 -1.85393e-13 2.83307e-12 -404258 -3.85755e+06 1.79921e+06 
16 1 5 4.575e-09 2.09012e-08 1.2749e-08 3.92606e-08 0 0 0 0.00485084 -0.00181424 -0.00826354 -1.44166e-12 4.78206e-13 1.96184e-13 -274643 -2.99179e+06 2.46738e+06 
19 1 12 9.075e-09 6.48301e-09 6.37753e-09 4.49474e-08 0 0 0 0.00380687 0.00162613 -0.000303434 9.32053e-12 -2.97947e-11 -1.33771e-11 -13730.9 -1.6029e+06 948213 
18 1 3 3.575e-09 2.82863e-08 9.50146e-09 3.96943e-08 0 0 0 0.0111184 0.0152777 0.0107656 -2.37447e-13 -9.73265e-14 -7.25162e-13 -5.55812e+06 1.57163e+06 1.08205e+06 
1 1 1 2.575e-09 -3.06451e-08 2.35634e-08 3.2239e-08 0 0 0 0.00931848 -0.000214501 -0.00902955 8.99791e-13 1.15127e-12 1.61461e-13 -1.63113e+07 -1.21622e+06 -1.24899e+07 
3 1 3 3.575e-09 -2.97356e-08 2.84899e-08 3.56101e-08 0 0 0 0.00455184 -0.00325648 -0.0131914 -2.56809e-12 -1.36936e-12 2.21545e-13 8.83621e+06 -2.20682e+07 -8.44845e+06 
4 1 2 3.075e-09 -2.59745e-08 2.97354e-08 4.08461e-08 0 0 0 -0.0247969 -0.0537726 0.0155735 4.16977e-13 -1.09488e-12 -5.36931e-13 6.06349e+06 1.52309e+07 8.80376e+06 
5 1 2 3.075e-09 -2.00621e-08 2.90067e-08 4.18998e-08 0 0 0 -0.00853713 -0.0219383 -0.0356724 2.06153e-13 -9.26032e-13 4.06371e-12 3.00521e+06 -2.25683e+06 4.4607e+06 
6 1 4 4.075e-09 -1.52214e-08 2.44975e-08 4.43331e-08 0 0 0 0.0058561 -0.00747543 -0.0160267 5.4487e-12 -3.59438e-12 -7.31145e-13 4.11835e+06 -2.11246e+07 6.14958e+06 
7 1 8 6.075e-09 -1.23141e-08 1.56465e-08 4.82287e-08 0 0 0 0.00840977 0.000584108 0.0122029 8.37624e-12 -2.79155e-12 5.91155e-12 -1.35882e+06 1.03455e+06 1.4723e+06 
11 1 6 5.075e-09 -2.45466e-10 9.04958e-09 5.74442e-08 0 0 0 -0.00435199 0.0011551 0.00906369 -1.37809e-11 5.33716e-12 4.78458e-13 1.11307e+07 3.96013e+06 -1.34245e+07 
12 1 4 4.075e-09 -5.40552e-09 8.51173e-09 5.00261e-08 0 0 0 0.00949854 0.00803146 0.0120992 4.36406e-12 4.09891e-12 -6.24796e-13 -5.62879e+06 -1.08922e+07 5.84174e+06 
8 1 4 4.075e-09 1.62104e-08 1.81796e-08 5.13666e-08 0 0 0 0.00270301 0.000105811 -0.000471545 6.76884e-13 1.4683e-13 3.19645e-13 156271 -105045 610160 
13 1 10 7.575e-09 -1.51668e-09 3.51007e-08 6.43104e-08 0 0 0 0.00171988 0.00256676 0.00334977 -6.7201e-14 -4.29673e-13 2.99484e-12 -265173 -813588 435106 
14 1 4 4.075e-09 -1.20294e-08 3.30418e-08 6.86448e-08 0 0 0 0.00134239 -0.00187373 0.00247522 1.79848e-13 -9.19832e-13 7.05899e-13 1.1099e+07 1.61866e+06 -4.88368e+06 
9 1 5 4.575e-09 1.53151e-08 2.61962e-08 4.85892e-08 0 0 0 -0.00177297 0.0020466 0.0017993 1.3516e-12 -1.74681e-12 1.9806e-12 1.13664e+06 155191 2.58827e+06 
10 1 12 9.075e-09 4.55866e-09 2.21638e-08 5.58381e-08 0 0 0 -0.00442502 0.00326713 -0.0098093 -4.61959e-12 3.10486e-12 -9.59433e-12 -20240 -1.33317e+06 -1.4585e+06 
