ITEM: TIMESTEP
60000
ITEM: NUMBER OF ATOMS
31
ITEM: BOX BOUNDS mm mm ss
-8.47369e-08 8.47369e-08
-8.47369e-08 8.47369e-08
-2.01588e-11 9.21797e-08
ITEM: ATOMS id mol type radius x y z ix iy iz vx vy vz fx fy fz omegax omegay omegaz 
21 1 4 4.075e-09 -1.03039e-08 -2.53215e-08 2.11005e-08 0 0 0 0.0159428 -0.0386986 0.00236423 3.15009e-12 1.92678e-12 -2.11162e-13 -4.21567e+07 -2.98369e+06 1.20812e+07 
23 1 6 5.075e-09 7.7738e-09 -1.88866e-08 2.22902e-08 0 0 0 0.00241504 0.0228928 0.00108129 -3.05927e-12 5.92009e-13 1.80735e-12 -1.05977e+07 600862 7.20698e+06 
30 1 9 6.575e-09 1.24213e-08 -4.68968e-08 3.30015e-08 0 0 0 -0.0555019 0.0169273 0.00808357 6.53786e-13 -2.86401e-12 5.473e-13 1.11998e+07 1.15644e+07 8.687e+06 
32 1 2 3.075e-09 2.1142e-08 -4.99047e-08 3.56002e-08 0 0 0 0.00243997 0.0724114 -0.126291 9.16391e-14 -4.47058e-13 -5.53282e-14 3.41198e+07 4.03176e+06 1.84622e+07 
22 1 8 6.075e-09 -1.21453e-09 -2.46365e-08 2.53055e-08 0 0 0 0.0110739 0.00660425 0.00214798 -2.18011e-12 -8.46846e-12 -9.71112e-13 -1.20052e+07 -1.1169e+06 9.97582e+06 
27 1 8 6.075e-09 1.69644e-09 -3.42917e-08 3.18681e-08 0 0 0 0.00512117 -0.00322123 -0.0178075 1.28726e-11 -2.8382e-12 8.62055e-12 -463577 505077 3.22713e+06 
28 1 1 2.575e-09 6.69384e-09 -3.84331e-08 2.62987e-08 0 0 0 -0.00477895 0.0657186 -0.0642034 -8.58434e-13 5.91358e-13 5.11977e-13 1.98415e+07 4.16235e+06 -2.40088e+06 
29 1 2 3.075e-09 1.18414e-08 -4.05015e-08 2.5902e-08 0 0 0 -0.0170136 0.0437765 0.0367929 1.47588e-12 -8.00271e-13 -2.02285e-12 -1.18957e+07 -3.65617e+07 -1.06576e+07 
31 1 8 6.075e-09 6.13065e-09 -2.56738e-08 3.91266e-08 0 0 0 0.00272356 -0.00762484 0.0128215 -5.70973e-12 -1.65554e-12 -1.44493e-11 -972973 -1.23999e+06 1.65966e+06 
24 1 11 8.575e-09 -3.41751e-09 -1.50435e-08 3.60585e-08 0 0 0 0.0159581 -0.00207033 0.00816415 -9.91858e-12 1.49567e-11 8.76982e-12 928600 -1.65338e+06 1.33227e+06 
25 1 4 4.075e-09 -5.54303e-10 -3.32179e-09 3.96474e-08 0 0 0 -0.0200316 0.00446765 0.0108012 3.75109e-12 1.6632e-13 1.71055e-12 99973.9 2.41139e+06 5.37015e+06 
2 1 7 5.575e-09 -3.42764e-08 1.63498e-08 3.19825e-08 0 0 0 0.00216586 -0.0330528 -0.0170943 1.00688e-12 -2.82772e-14 -2.1728e-12 -5.88803e+06 2.52345e+06 -1.33135e+06 
15 1 8 6.075e-09 1.29723e-08 1.17779e-08 3.2399e-08 0 0 0 0.0126903 -0.00500419 0.0031858 2.00323e-12 -2.65713e-12 1.05301e-12 -1.07607e+06 -3.93951e+06 1.23749e+06 
17 1 7 5.575e-09 1.71233e-08 4.28371e-09 2.45566e-08 0 0 0 0.00951061 -0.000801145 -0.00358925 4.1768e-14 -1.99204e-13 -2.07635e-12 1.39254e+06 4.70962e+06 -2.88275e+06 
16 1 5 4.575e-09 2.09058e-08 1.27481e-08 3.92643e-08 0 0 0 -0.0167451 0.00631482 0.0348336 -2.10306e-12 1.65338e-13 2.13478e-12 1.29005e+06 -1.42975e+06 2.02916e+06 
19 1 12 9.075e-09 6.48737e-09 6.37664e-09 4.49519e-08 0 0 0 -0.00946858 0.00265587 -0.000854864 -1.54962e-12 2.16589e-11 4.83167e-12 198197 663952 -589686 
18 1 3 3.575e-09 2.82912e-08 9.50116e-09 3.96979e-08 0 0 0 -0.0202584 -0.00882775 -0.0234232 -1.20098e-12 -7.29483e-14 -4.83503e-13 3.23403e+06 1.72498e+07 -6.56135e+06 
1 1 1 2.575e-09 -3.06463e-08 2.35301e-08 3.22356e-08 0 0 0 -0.00662395 -0.0206104 -0.00604873 9.4952e-13 1.54157e-12 9.31461e-13 1.43062e+07 451112 1.2691e+07 
3 1 3 3.575e-09 -2.97412e-08 2.84617e-08 3.56005e-08 0 0 0 -0.0131811 -0.0127756 -0.000633823 -9.76378e-13 5.76693e-13 9.45493e-13 -6.63252e+06 2.76228e+07 1.51938e+07 
4 1 2 3.075e-09 -2.598e-08 2.97159e-08 4.08344e-08 0 0 0 0.0111761 0.052006 -0.0234348 -1.97257e-12 7.3574e-13 1.25487e-12 -1.0733e+06 -1.79559e+07 959999 
5 1 2 3.075e-09 -2.00674e-08 2.89931e-08 4.18911e-08 0 0 0 0.00036304 0.0471224 0.0754786 -1.20083e-12 1.61689e-12 -1.93302e-12 1.57635e+07 -1.44455e+07 -1.11133e+06 
6 1 4 4.075e-09 -1.52239e-08 2.44882e-08 4.43263e-08 0 0 0 0.00634463 0.00767941 0.00699504 -3.12567e-12 7.34811e-13 2.9385e-13 -8.28058e+06 3.31085e+07 -1.17595e+07 
20 1 13 1.0075e-08 1.92085e-08 -7.84682e-09 4.68125e-08 0 0 0 0.00338618 -0.00211894 -0.00136064 5.78654e-12 -2.36455e-11 -1.3687e-11 -1.38084e+06 -1.05672e+06 1.20178e+06 
7 1 8 6.075e-09 -1.23127e-08 1.56411e-08 4.82275e-08 0 0 0 -0.0106382 -0.0173847 -0.0183339 -3.86869e-12 -2.63945e-13 -4.09179e-13 1.13097e+06 240105 -2.61522e+06 
11 1 6 5.075e-09 -2.42935e-10 9.05586e-09 5.74479e-08 0 0 0 0.040669 -0.00904608 -0.00746518 7.67684e-12 -5.58639e-12 4.81207e-12 -8.58479e+06 -1.34261e+07 8.25314e+06 
12 1 4 4.075e-09 -5.40158e-09 8.51047e-09 5.00296e-08 0 0 0 -0.00388782 -0.0284631 -0.00500011 3.145e-12 1.69165e-12 3.33797e-12 7.94532e+06 6.96621e+06 -5.32109e+06 
8 1 4 4.075e-09 1.62103e-08 1.81885e-08 5.13682e-08 0 0 0 -0.0099699 -0.0079101 0.00417802 1.94147e-13 1.48798e-12 -2.2574e-12 -1.99136e+06 -725585 -1.80296e+06 
13 1 10 7.575e-09 -1.52399e-09 3.51095e-08 6.43019e-08 0 0 0 -0.00112254 0.00814241 -0.00759306 -6.97586e-13 2.45975e-13 1.57024e-12 228213 1.0335e+06 946710 
14 1 4 4.075e-09 -1.20361e-08 3.30479e-08 6.86365e-08 0 0 0 0.0031156 0.000732738 -0.00567017 -3.21536e-13 9.99588e-13 1.42697e-13 9.00691e+06 2.07382e+06 -1.04725e+06 
9 1 5 4.575e-09 1.53125e-08 2.62031e-08 4.8586e-08 0 0 0 0.000587662 -0.0109714 -0.007531 -3.11592e-12 2.94474e-15 -2.3283e-12 -1.82141e+06 -1.2501e+06 -1.57859e+06 
10 1 12 9.075e-09 4.55653e-09 2.21711e-08 5.58358e-08 0 0 0 0.00186162 0.00237399 0.00827513 -9.4005e-13 -1.64298e-13 -2.1835e-13 413999 683197 905407 
