ITEM: TIMESTEP
65000
ITEM: NUMBER OF ATOMS
31
ITEM: BOX BOUNDS mm mm ss
-8.47369e-08 8.47369e-08
-8.47369e-08 8.47369e-08
-2.01588e-11 9.06792e-08
ITEM: ATOMS id mol type radius x y z ix iy iz vx vy vz fx fy fz omegax omegay omegaz 
21 1 4 4.075e-09 -1.03016e-08 -2.53234e-08 2.1099e-08 0 0 0 0.00588448 0.0496453 0.0155344 -3.41215e-12 -1.46906e-12 3.55333e-12 2.92685e+07 3.21372e+06 1.37213e+07 
23 1 6 5.075e-09 7.77547e-09 -1.88863e-08 2.22897e-08 0 0 0 0.0145263 -0.00768101 0.00916125 3.67808e-12 -1.32274e-12 -2.17358e-12 6.17784e+06 -1.21312e+06 95758.8 
30 1 9 6.575e-09 1.24191e-08 -4.68959e-08 3.30082e-08 0 0 0 -0.0012275 -0.00347812 0.0186158 7.3562e-12 -2.15008e-12 -2.53332e-12 -2.33752e+06 115691 1.93499e+06 
32 1 2 3.075e-09 2.1141e-08 -4.99019e-08 3.56052e-08 0 0 0 0.0248974 0.0343288 -0.0241878 -5.05669e-13 -1.92851e-12 1.69448e-12 2.87577e+06 1.40817e+07 7.01182e+06 
22 1 8 6.075e-09 -1.21284e-09 -2.46363e-08 2.53047e-08 0 0 0 -0.00307669 0.00131426 -0.0027044 -1.55877e-11 -1.11048e-11 -1.7471e-11 -8.73307e+06 2.61033e+06 5.458e+06 
27 1 8 6.075e-09 1.69752e-09 -3.42914e-08 3.18676e-08 0 0 0 0.00725266 -0.00486268 -0.000936103 1.42086e-11 7.20596e-12 2.21059e-11 -4.28316e+06 1.09109e+06 4.81239e+06 
28 1 1 2.575e-09 6.69495e-09 -3.84325e-08 2.62982e-08 0 0 0 0.02605 -0.00150508 -0.00119677 -3.60011e-13 4.06632e-14 3.84353e-12 1.15337e+07 -4.05678e+06 -4.38901e+06 
29 1 2 3.075e-09 1.18419e-08 -4.05031e-08 2.59062e-08 0 0 0 0.0200081 -0.0170578 -0.00141001 7.04151e-13 -2.18834e-12 -2.12727e-12 -3.70877e+06 2.28003e+06 -2.12673e+06 
31 1 8 6.075e-09 6.13088e-09 -2.56734e-08 3.91265e-08 0 0 0 0.0053814 -9.06922e-05 0.00132818 -1.42612e-11 7.63639e-12 -1.19412e-11 -4.38449e+06 -666409 2.54465e+06 
24 1 11 8.575e-09 -3.41694e-09 -1.50429e-08 3.60572e-08 0 0 0 -0.00019961 -0.00385038 -0.0124546 1.05216e-11 2.07315e-12 -1.11521e-12 -747390 1.09905e+06 -377962 
25 1 4 4.075e-09 -5.53637e-10 -3.32128e-09 3.96459e-08 0 0 0 -0.00844681 0.000353333 -0.0182454 -4.48188e-12 2.40576e-12 1.95582e-12 -2.89628e+06 -2.3173e+06 -2.70518e+06 
2 1 7 5.575e-09 -3.42726e-08 1.63421e-08 3.19807e-08 0 0 0 0.00127918 0.0339482 0.00843617 1.28352e-13 -4.28075e-13 -1.63351e-12 2.35411e+06 -1.40279e+06 457193 
15 1 8 6.075e-09 1.29739e-08 1.17786e-08 3.23985e-08 0 0 0 -0.00930974 0.00326987 -0.00842535 2.53919e-13 -1.6204e-12 1.80787e-13 868110 1.54495e+06 -1.55263e+06 
17 1 7 5.575e-09 1.71256e-08 4.28438e-09 2.45563e-08 0 0 0 -0.000292453 0.00421042 0.00189187 -2.51708e-13 -1.56065e-12 -4.52493e-13 -1.17133e+06 -5.05957e+06 1.45018e+06 
16 1 5 4.575e-09 2.09057e-08 1.27491e-08 3.92657e-08 0 0 0 -0.00217036 -0.0026862 -0.015654 1.89206e-13 6.17302e-13 -7.81591e-13 565514 -1.37879e+06 158126 
19 1 12 9.075e-09 6.48753e-09 6.37726e-09 4.49506e-08 0 0 0 0.00229839 -0.00991289 -0.00414703 -9.2421e-12 1.15352e-11 1.59193e-11 83662 771257 -1.12895e+06 
18 1 3 3.575e-09 2.82911e-08 9.50239e-09 3.97003e-08 0 0 0 -0.00106028 -0.00184648 -0.00803135 1.4929e-13 2.66173e-13 3.90981e-13 -76490.7 -998403 12941.1 
1 1 1 2.575e-09 -3.06442e-08 2.35233e-08 3.22331e-08 0 0 0 0.0246427 0.016417 -0.00748922 1.03642e-12 1.43227e-12 5.26946e-13 -6.26725e+06 6.36227e+06 -6.21097e+06 
3 1 3 3.575e-09 -2.97414e-08 2.84565e-08 3.55963e-08 0 0 0 0.015252 -0.0119654 0.0277342 1.21364e-12 -9.88013e-13 9.4253e-13 1.10343e+07 -3.45596e+07 -1.45303e+07 
4 1 2 3.075e-09 -2.59821e-08 2.97138e-08 4.08308e-08 0 0 0 -0.0145224 -0.0704672 0.0545209 -6.11478e-14 -2.1636e-12 8.8791e-13 -4.72681e+06 3.01531e+07 -2.24411e+06 
5 1 2 3.075e-09 -2.00693e-08 2.89918e-08 4.18871e-08 0 0 0 0.0103719 -0.0598839 -0.116893 -1.03883e-12 1.2596e-12 1.8896e-12 -3.79874e+07 2.78775e+07 -5.98347e+06 
6 1 4 4.075e-09 -1.52251e-08 2.44884e-08 4.43244e-08 0 0 0 -0.00667939 -0.00531407 -0.0109187 8.49062e-13 2.95337e-12 -2.98885e-12 5.55663e+06 -3.29541e+07 1.12907e+07 
20 1 13 1.0075e-08 1.92083e-08 -7.84643e-09 4.68125e-08 0 0 0 0.0011097 0.00191594 0.00399216 4.02904e-12 -2.36267e-12 6.68091e-13 1.23551e+06 955589 -1.05915e+06 
7 1 8 6.075e-09 -1.23133e-08 1.56416e-08 4.82258e-08 0 0 0 -0.00783714 0.0220446 0.0128616 -5.76365e-12 -1.02816e-12 -8.86884e-12 -763106 -2.53471e+06 1.29121e+06 
11 1 6 5.075e-09 -2.43838e-10 9.05553e-09 5.74465e-08 0 0 0 -0.0323401 0.00556624 -0.0152155 5.98382e-12 -5.04045e-12 -4.67495e-12 7.4205e+06 2.0637e+06 -9.28502e+06 
12 1 4 4.075e-09 -5.40187e-09 8.51106e-09 5.00277e-08 0 0 0 -0.0183991 0.0212388 -0.00819003 -1.07679e-12 -1.24773e-12 -2.98927e-12 6.97832e+06 2.81345e+06 -4.1989e+06 
8 1 4 4.075e-09 1.62098e-08 1.81898e-08 5.1369e-08 0 0 0 0.00690436 0.00908527 0.00982809 -8.01292e-13 3.06614e-13 -7.01309e-13 1.18948e+06 714814 1.90472e+06 
13 1 10 7.575e-09 -1.52566e-09 3.51083e-08 6.4304e-08 0 0 0 0.00203345 -0.00171246 -0.0026637 -1.49905e-12 5.84005e-13 -5.00099e-12 -421354 740225 1.84014e+06 
9 1 5 4.575e-09 1.53117e-08 2.62048e-08 4.8588e-08 0 0 0 -0.00152747 0.00931857 0.0145371 1.73917e-12 -1.42545e-12 5.97071e-13 360444 1.0538e+06 393130 
10 1 12 9.075e-09 4.5555e-09 2.2171e-08 5.58365e-08 0 0 0 -0.00146797 -0.00406802 0.00409132 6.26529e-12 3.11808e-14 1.16094e-11 -519141 603752 215600 
14 1 4 4.075e-09 -1.20385e-08 3.30465e-08 6.86366e-08 0 0 0 0.0111248 -0.00873636 0.013717 3.73531e-14 -3.18923e-13 -1.31227e-12 7.3063e+06 2.36364e+06 -1.34395e+06 
