ITEM: TIMESTEP
70000
ITEM: NUMBER OF ATOMS
31
ITEM: BOX BOUNDS mm mm ss
-8.47369e-08 8.47369e-08
-8.47369e-08 8.47369e-08
-2.01588e-11 8.91787e-08
ITEM: ATOMS id mol type radius x y z ix iy iz vx vy vz fx fy fz omegax omegay omegaz 
21 1 4 4.075e-09 -1.02116e-08 -2.55992e-08 2.10183e-08 0 0 0 0.056874 -0.22184 0.0135216 -8.21454e-13 -7.28531e-12 5.75662e-13 -3.8017e+07 -4.13919e+06 3.1179e+06 
23 1 6 5.075e-09 7.88912e-09 -1.92319e-08 2.22265e-08 0 0 0 0.0896152 -0.275815 0.0371629 -3.32807e-12 2.83564e-12 -1.11576e-12 -4.35488e+06 -8.19231e+06 -9.75044e+06 
30 1 9 6.575e-09 1.24029e-08 -4.71922e-08 3.31941e-08 0 0 0 -0.0402984 -0.308871 0.339927 -5.21683e-13 1.99371e-12 -7.77356e-13 -1.30257e+07 -9.05342e+06 -1.1581e+07 
32 1 2 3.075e-09 2.11237e-08 -5.01972e-08 3.57958e-08 0 0 0 -0.103529 -0.381029 0.469039 -9.1382e-13 -3.13943e-13 2.27081e-12 -5.58768e+07 4.94233e+06 -2.37762e+07 
22 1 8 6.075e-09 -1.14046e-09 -2.49066e-08 2.5261e-08 0 0 0 0.0273908 -0.189578 0.0324871 -4.44889e-12 -8.2405e-12 -1.3547e-11 -1.16295e+07 -4.97303e+06 -2.26688e+06 
27 1 8 6.075e-09 1.69711e-09 -3.45086e-08 3.19329e-08 0 0 0 -0.030323 -0.135532 0.139133 1.81536e-11 1.60332e-12 2.42682e-11 -1.1911e+07 -2.30751e+06 -4.21358e+06 
28 1 1 2.575e-09 6.69531e-09 -3.87345e-08 2.6428e-08 0 0 0 0.0220744 -0.27724 0.284526 -2.65012e-13 1.18241e-12 2.22323e-12 -3.20676e+07 -3.0516e+07 -1.55844e+07 
29 1 2 3.075e-09 1.18329e-08 -4.08331e-08 2.60613e-08 0 0 0 0.00330833 -0.339418 0.303321 1.36014e-12 -1.33171e-12 -2.45701e-12 697997 2.8952e+07 -6.07331e+06 
31 1 8 6.075e-09 6.14104e-09 -2.5838e-08 3.91222e-08 0 0 0 -0.00902308 -0.0794983 0.0525743 -8.44613e-12 4.22954e-12 -8.48357e-12 -1.04511e+07 -1.13101e+06 -4.06122e+06 
24 1 11 8.575e-09 -3.35131e-09 -1.52003e-08 3.59104e-08 0 0 0 0.0276794 -0.082833 -0.0635785 -5.23937e-12 -3.17427e-12 -5.75516e-12 -9.14136e+06 -2.11841e+06 -1.43216e+06 
25 1 4 4.075e-09 -4.60506e-10 -3.447e-09 3.9371e-08 0 0 0 0.0346713 -0.0482809 -0.196098 1.13248e-14 -7.34826e-14 1.23696e-12 -1.91164e+07 -9.72983e+06 -2.63801e+06 
2 1 7 5.575e-09 -3.41035e-08 1.59698e-08 3.09767e-08 0 0 0 0.467616 -0.354186 -1.08049 3.07614e-12 3.83325e-13 -4.18922e-12 -5.82339e+06 -1.85238e+07 6.01982e+06 
15 1 8 6.075e-09 1.32421e-08 1.14561e-08 3.20503e-08 0 0 0 0.089059 -0.156532 -0.310482 -1.84374e-12 1.81951e-12 -1.59504e-12 -1.56049e+07 -6.91928e+06 -1.95955e+06 
17 1 7 5.575e-09 1.74832e-08 3.78274e-09 2.44324e-08 0 0 0 0.129515 -0.288783 -0.155983 -3.80166e-13 1.04468e-12 -9.13567e-14 -1.68469e+07 -8.954e+06 -2.43866e+06 
16 1 5 4.575e-09 2.10515e-08 1.25345e-08 3.90406e-08 0 0 0 0.0299054 -0.0441564 -0.262102 -9.53146e-14 -2.30846e-13 -1.98524e-12 -2.2079e+07 -1.07986e+07 -4.53515e+06 
18 1 3 3.575e-09 2.83979e-08 9.24729e-09 3.97479e-08 0 0 0 0.00330764 -0.0643998 -0.0885795 2.73533e-13 5.30021e-13 4.17653e-13 -2.5241e+07 -1.6401e+07 -5.26948e+06 
1 1 1 2.575e-09 -3.03823e-08 2.31078e-08 3.09632e-08 0 0 0 0.445312 -0.342722 -1.08935 4.09295e-13 1.51203e-12 1.03688e-12 -3.16027e+07 -4.0434e+07 3.85285e+06 
3 1 3 3.575e-09 -2.94274e-08 2.81934e-08 3.40756e-08 0 0 0 0.311897 -0.263077 -1.18058 -1.05069e-12 -4.60006e-13 6.87166e-13 -2.08639e+07 -4.17646e+07 -735565 
4 1 2 3.075e-09 -2.57033e-08 2.96387e-08 3.92867e-08 0 0 0 0.149071 -0.106232 -1.11177 -1.11391e-12 -1.84434e-12 4.09065e-13 -2.77423e+07 -1.07392e+07 1.69109e+07 
5 1 2 3.075e-09 -1.98153e-08 2.88887e-08 4.04559e-08 0 0 0 0.109448 -0.0577194 -0.906183 -1.18949e-12 -1.09537e-12 1.68231e-12 -1.67517e+07 -5.54466e+07 -1.21961e+07 
6 1 4 4.075e-09 -1.50533e-08 2.444e-08 4.31426e-08 0 0 0 0.0119728 -0.0351982 -0.698104 3.18384e-12 4.93717e-13 -1.82004e-12 -2.26291e+07 -976417 -425831 
20 1 13 1.0075e-08 1.91996e-08 -7.95136e-09 4.68048e-08 0 0 0 -0.00627236 0.0191905 -0.0919254 4.38194e-12 -1.65953e-12 -2.9587e-12 -8.00196e+06 -6.47404e+06 -612261 
7 1 8 6.075e-09 -1.22391e-08 1.5696e-08 4.73366e-08 0 0 0 0.0167455 0.0424272 -0.534843 -3.64317e-12 5.97618e-13 3.37464e-13 -1.62915e+07 1.74139e+06 -2.18534e+06 
11 1 6 5.075e-09 -3.65853e-10 9.39208e-09 5.69555e-08 0 0 0 -0.0711602 0.155716 -0.355209 -1.4173e-12 4.65325e-13 -5.36879e-13 -1.13898e+07 -5.62155e+06 -2.21321e+06 
12 1 4 4.075e-09 -5.38481e-09 8.60015e-09 4.9464e-08 0 0 0 -0.0080357 0.0644822 -0.38579 8.35587e-13 4.02465e-13 -9.47833e-13 -1.71783e+07 -1.13617e+07 207853 
19 1 12 9.075e-09 6.56482e-09 6.30084e-09 4.46057e-08 0 0 0 0.020183 0.00444119 -0.27963 2.71934e-12 7.07375e-12 3.70209e-12 -9.90091e+06 -3.71829e+06 -796302 
8 1 4 4.075e-09 1.6202e-08 1.83252e-08 5.08451e-08 0 0 0 -0.0383618 0.0781572 -0.383733 2.49811e-14 1.08606e-13 -6.99002e-13 -4.74069e+06 -4.25143e+06 -2.06711e+06 
13 1 10 7.575e-09 -1.60175e-09 3.56079e-08 6.31552e-08 0 0 0 -0.0306206 0.17995 -0.512172 -2.97297e-13 1.59877e-12 3.81366e-13 -6.68353e+06 187154 -301415 
9 1 5 4.575e-09 1.5351e-08 2.62605e-08 4.78303e-08 0 0 0 -0.00935052 0.0658375 -0.423863 -2.27946e-13 -2.22755e-12 -5.78252e-13 -4.69834e+06 -1.96245e+06 -3.38364e+06 
10 1 12 9.075e-09 4.50466e-09 2.24436e-08 5.50641e-08 0 0 0 -0.0380021 0.128615 -0.43325 1.02353e-12 -8.15676e-13 5.64032e-12 -4.57295e+06 -2.29659e+06 -2.26468e+06 
14 1 4 4.075e-09 -1.21895e-08 3.37487e-08 6.73961e-08 0 0 0 -0.0322523 0.220175 -0.497916 -1.05922e-13 3.29604e-13 -1.22366e-13 -3.36093e+07 -5.05374e+06 8.24789e+06 
