ITEM: TIMESTEP
75000
ITEM: NUMBER OF ATOMS
31
ITEM: BOX BOUNDS mm mm ss
-8.47369e-08 8.47369e-08
-8.47369e-08 8.47369e-08
-2.01588e-11 8.78474e-08
ITEM: ATOMS id mol type radius x y z ix iy iz vx vy vz fx fy fz omegax omegay omegaz 
21 1 4 4.075e-09 -9.93213e-09 -2.6311e-08 2.10185e-08 0 0 0 0.153029 -0.335451 0.0149992 -9.33251e-13 -3.45699e-12 5.9583e-13 -4.4669e+07 -1.14965e+07 -2.95603e+06 
30 1 9 6.575e-09 1.21075e-08 -4.76534e-08 3.49735e-08 0 0 0 -0.075343 -0.213681 0.72939 -1.25752e-12 1.21665e-12 -9.70545e-13 -1.30785e+07 -7.62678e+06 -4.69498e+06 
32 1 2 3.075e-09 2.07183e-08 -5.05998e-08 3.79773e-08 0 0 0 -0.123745 -0.204794 0.876713 -3.48262e-13 -7.45361e-13 -1.09246e-13 -1.44134e+07 -2.23983e+07 -1.18998e+06 
22 1 8 6.075e-09 -9.50803e-10 -2.55244e-08 2.54324e-08 0 0 0 0.106438 -0.258388 0.0728814 -2.1892e-12 -5.93872e-12 -6.93814e-12 -1.86904e+07 -7.61161e+06 -1.23265e+06 
27 1 8 6.075e-09 1.65337e-09 -3.49028e-08 3.25067e-08 0 0 0 0.0270393 -0.153603 0.246188 9.84588e-12 4.08523e-12 1.42418e-11 -1.55909e+07 -6.52326e+06 -2.96299e+06 
28 1 1 2.575e-09 6.73124e-09 -3.9495e-08 2.73812e-08 0 0 0 0.0632009 -0.31088 0.423855 -9.68654e-13 1.5294e-12 1.04541e-12 -4.02859e+07 -2.39676e+07 -1.18353e+07 
29 1 2 3.075e-09 1.18279e-08 -4.172e-08 2.74664e-08 0 0 0 0.0375334 -0.361082 0.609169 6.42969e-13 -1.18904e-12 -2.03961e-12 -3.3543e+07 -1.56435e+07 -9.53246e+06 
31 1 8 6.075e-09 6.07216e-09 -2.60204e-08 3.94474e-08 0 0 0 0.00581215 -0.056405 0.128399 -3.50935e-12 2.40806e-12 -6.20455e-12 -1.75113e+07 -8.02811e+06 -3.55761e+06 
24 1 11 8.575e-09 -3.27474e-09 -1.54327e-08 3.56939e-08 0 0 0 0.0564241 -0.0943126 -0.0960272 2.70733e-12 3.2741e-12 9.31197e-13 -1.37426e+07 -6.43184e+06 -1.05069e+06 
25 1 4 4.075e-09 -3.68135e-10 -3.56969e-09 3.87429e-08 0 0 0 0.045407 -0.0464212 -0.261507 -2.16375e-12 1.6962e-12 8.31588e-13 -2.37278e+07 -1.26086e+07 -3.11773e+06 
23 1 6 5.075e-09 8.20191e-09 -2.00712e-08 2.2361e-08 0 0 0 0.173829 -0.35873 0.0817813 -6.33514e-13 1.91947e-12 -1.11607e-12 -1.25676e+07 -1.16413e+07 -8.43056e+06 
2 1 7 5.575e-09 -3.30371e-08 1.54281e-08 2.86067e-08 0 0 0 -0.107182 0.0404472 -0.421632 -3.82884e-13 -1.4884e-12 -1.23336e-12 -1.00582e+07 91614.4 -1.36764e+07 
15 1 8 6.075e-09 1.34207e-08 1.11739e-08 3.11807e-08 0 0 0 0.148831 -0.147503 -0.344246 8.91497e-13 -4.74135e-13 -8.90087e-13 -1.20891e+07 -8.22071e+06 -4.29638e+06 
17 1 7 5.575e-09 1.77346e-08 3.27495e-09 2.38393e-08 0 0 0 0.189346 -0.258226 -0.200888 -1.54748e-12 -1.26679e-12 1.17559e-13 -1.13235e+07 -1.54247e+07 -6.83251e+06 
16 1 5 4.575e-09 2.11406e-08 1.24564e-08 3.82356e-08 0 0 0 0.0755409 -0.0669912 -0.277977 -1.44706e-12 4.15073e-13 4.64797e-13 -1.72194e+07 -1.51144e+07 -2.66125e+06 
18 1 3 3.575e-09 2.84619e-08 9.18013e-09 3.92053e-08 0 0 0 0.0470797 -0.0880579 -0.130708 -5.83883e-13 2.59226e-13 2.71498e-14 -3.01871e+07 -3.45496e+06 -1.00203e+07 
1 1 1 2.575e-09 -2.93982e-08 2.26084e-08 2.85929e-08 0 0 0 0.0269011 -0.0311678 -0.584214 -1.24081e-13 1.76556e-12 1.76109e-13 -3.85666e+07 3.44682e+06 -2.99653e+07 
3 1 3 3.575e-09 -2.86981e-08 2.78118e-08 3.15758e-08 0 0 0 0.158772 0.0489609 -0.760608 1.123e-13 7.64093e-13 -1.14644e-12 -2.86468e+07 5.17839e+06 -2.1072e+07 
4 1 2 3.075e-09 -2.52779e-08 2.94681e-08 3.69303e-08 0 0 0 0.156033 0.11751 -0.782926 -2.8463e-12 7.21131e-14 1.51502e-12 -2.73438e+07 -1.95792e+07 -2.46112e+07 
5 1 2 3.075e-09 -1.94637e-08 2.88006e-08 3.84623e-08 0 0 0 0.136676 0.0452351 -0.736525 -3.31716e-12 2.04947e-13 2.72936e-12 -1.89894e+07 1.25398e+07 -9.56129e+06 
6 1 4 4.075e-09 -1.48295e-08 2.44535e-08 4.15139e-08 0 0 0 0.123511 0.0660218 -0.687123 6.54241e-12 2.94323e-12 -5.04591e-12 -6.25769e+06 -9.43783e+06 -2.8998e+06 
20 1 13 1.0075e-08 1.92241e-08 -7.91837e-09 4.63207e-08 0 0 0 -0.00709359 -0.00947352 -0.160585 1.78458e-12 -6.35401e-12 7.10569e-13 -6.99592e+06 -4.94707e+06 -3.04988e+06 
7 1 8 6.075e-09 -1.21579e-08 1.58071e-08 4.59936e-08 0 0 0 0.0581325 0.0813332 -0.626337 -1.19079e-11 -1.03075e-12 -2.4523e-13 -3.91727e+06 -9.44241e+06 -3.64256e+06 
11 1 6 5.075e-09 -5.27408e-10 9.6773e-09 5.6018e-08 0 0 0 -0.0753739 0.122554 -0.440871 9.50951e-12 -2.34998e-12 2.25851e-12 -1.07337e+07 -1.27145e+07 3.0346e+06 
12 1 4 4.075e-09 -5.38466e-09 8.73562e-09 4.84378e-08 0 0 0 -0.00109982 0.06784 -0.486763 2.06162e-12 -2.6545e-12 -9.61142e-13 -1.09268e+07 -1.15415e+07 -5.89225e+06 
19 1 12 9.075e-09 6.62065e-09 6.30553e-09 4.37847e-08 0 0 0 0.0414644 0.00199647 -0.341152 3.24466e-12 3.99805e-12 3.35375e-12 -8.96324e+06 -5.91498e+06 -2.77341e+06 
8 1 4 4.075e-09 1.61487e-08 1.85338e-08 5.00088e-08 0 0 0 -0.00688921 0.0911673 -0.327924 -7.48846e-13 5.3892e-13 -1.67519e-12 -3.90227e+06 -1.17254e+07 796806 
13 1 10 7.575e-09 -1.76098e-09 3.59342e-08 6.19713e-08 0 0 0 -0.09385 0.125308 -0.527714 9.47877e-13 4.9244e-13 -1.55805e-12 -3.43945e+06 -6.79205e+06 262551 
9 1 5 4.575e-09 1.53373e-08 2.64403e-08 4.69087e-08 0 0 0 0.0193859 0.0777559 -0.367226 -1.90121e-12 -1.8205e-12 -2.38226e-12 -4.32216e+06 -1.04818e+07 -153416 
10 1 12 9.075e-09 4.40445e-09 2.26945e-08 5.40499e-08 0 0 0 -0.0351757 0.100614 -0.430664 -1.65412e-12 2.42202e-13 4.24262e-12 -3.23909e+06 -5.45697e+06 652778 
14 1 4 4.075e-09 -1.24128e-08 3.41644e-08 6.60882e-08 0 0 0 -0.127291 0.137473 -0.610007 1.61036e-13 9.86075e-13 -5.06642e-13 6.11468e+06 -9.74112e+06 -3.27091e+06 
