ITEM: TIMESTEP
80000
ITEM: NUMBER OF ATOMS
31
ITEM: BOX BOUNDS mm mm ss
-8.47369e-08 8.47369e-08
-8.47369e-08 8.47369e-08
-2.01588e-11 8.60909e-08
ITEM: ATOMS id mol type radius x y z ix iy iz vx vy vz fx fy fz omegax omegay omegaz 
21 1 4 4.075e-09 -9.65504e-09 -2.69312e-08 2.10805e-08 0 0 0 -0.0589448 -0.183688 0.0981611 -4.0978e-12 -5.34699e-12 -2.97033e-12 333337 -605011 -1.90496e+07 
30 1 9 6.575e-09 1.20179e-08 -4.81272e-08 3.59463e-08 0 0 0 0.0552144 -0.0456066 0.138547 -5.28773e-12 3.52905e-12 1.05226e-12 -4.11773e+06 9.76143e+06 4.78633e+06 
32 1 2 3.075e-09 2.05335e-08 -5.11221e-08 3.91658e-08 0 0 0 0.0981691 0.0161706 0.0819017 -2.88409e-14 4.68407e-13 -9.02903e-13 -2.46275e+07 1.13337e+07 560684 
22 1 8 6.075e-09 -7.43144e-10 -2.60326e-08 2.56121e-08 0 0 0 -0.0437048 -0.163094 0.0627751 1.22607e-11 -1.36963e-12 1.12039e-11 3.26072e+06 2.02597e+06 -8.73178e+06 
27 1 8 6.075e-09 1.7528e-09 -3.52524e-08 3.29306e-08 0 0 0 -0.00745049 -0.106434 0.129475 -3.52141e-12 5.95693e-12 -3.90513e-12 4.77372e+06 728145 -7.88128e+06 
28 1 1 2.575e-09 6.86396e-09 -4.00385e-08 2.80198e-08 0 0 0 -0.0517026 -0.145996 0.125801 -1.03463e-12 2.02012e-12 -1.48933e-12 -1.42637e+07 2.5939e+07 8.05693e+06 
29 1 2 3.075e-09 1.19135e-08 -4.23517e-08 2.83126e-08 0 0 0 -0.0295133 -0.111898 0.0949439 5.4151e-13 -1.09608e-12 -1.80146e-12 -1.5219e+07 -1.37267e+06 7.12072e+06 
31 1 8 6.075e-09 6.12418e-09 -2.62259e-08 3.97126e-08 0 0 0 -0.00574963 -0.079431 0.0447763 7.4887e-12 -2.17193e-12 1.01676e-11 -1.04275e+06 2.14465e+06 -2.28235e+06 
24 1 11 8.575e-09 -3.17082e-09 -1.57174e-08 3.56255e-08 0 0 0 -0.00853638 -0.10213 0.0222957 -2.23477e-12 2.0389e-12 -6.33999e-12 -4.1343e+06 2.44002e+06 -26957.9 
25 1 4 4.075e-09 -3.06226e-10 -3.77035e-09 3.83712e-08 0 0 0 -0.00195215 -0.0801261 -0.0806999 7.58872e-13 5.05206e-13 -4.89305e-13 -1.32423e+07 1.62319e+06 -173823 
23 1 6 5.075e-09 8.46417e-09 -2.06836e-08 2.25205e-08 0 0 0 -0.0579319 -0.164838 -0.0147847 -4.33468e-12 1.52304e-12 -2.34963e-13 -1.07767e+07 3.19708e+06 3.31046e+06 
2 1 7 5.575e-09 -3.30815e-08 1.49913e-08 2.7434e-08 0 0 0 0.253462 -0.662952 -0.4508 4.16638e-13 -7.86905e-13 -8.40702e-13 -2.24085e+07 -5.60698e+06 7.09987e+06 
15 1 8 6.075e-09 1.35798e-08 1.07591e-08 3.05392e-08 0 0 0 0.0339946 -0.194967 -0.226476 2.83074e-13 -1.14226e-12 -1.67493e-13 -1.45446e+07 -1.37568e+06 -2.47706e+06 
17 1 7 5.575e-09 1.79594e-08 2.60222e-09 2.35261e-08 0 0 0 0.0383301 -0.311621 -0.0883517 -4.85355e-13 -8.15993e-13 -4.11417e-13 -1.5628e+07 -6.58284e+06 -2.56585e+06 
16 1 5 4.575e-09 2.12004e-08 1.2271e-08 3.76564e-08 0 0 0 0.0302444 -0.094167 -0.242177 -8.64515e-13 -9.62263e-15 8.96157e-13 -2.04204e+07 -2.08231e+06 -4.61588e+06 
18 1 3 3.575e-09 2.84799e-08 9.00506e-09 3.89284e-08 0 0 0 0.0139771 -0.0831849 -0.119805 -4.46147e-17 8.6403e-14 9.58425e-15 -2.44968e+07 -1.2237e+07 -66703.3 
1 1 1 2.575e-09 -2.92827e-08 2.20818e-08 2.71282e-08 0 0 0 0.192021 -0.646437 -0.658577 1.79128e-12 1.0592e-12 -3.92014e-13 -4.85996e+07 -3.69049e+06 6.33678e+06 
3 1 3 3.575e-09 -2.84515e-08 2.74238e-08 2.98179e-08 0 0 0 0.137289 -0.541171 -0.860162 6.78137e-14 -1.92982e-12 2.39147e-12 -3.14752e+07 -2.11599e+07 -222355 
4 1 2 3.075e-09 -2.50238e-08 2.92813e-08 3.51013e-08 0 0 0 0.0848837 -0.324354 -0.902211 -1.93281e-13 3.8529e-13 3.5286e-13 -4.20606e+07 5.63076e+06 1.28644e+07 
5 1 2 3.075e-09 -1.92361e-08 2.85801e-08 3.67165e-08 0 0 0 0.0806416 -0.209668 -0.832239 -1.35189e-13 9.01365e-13 -1.61065e-12 -3.41557e+07 -2.0351e+07 1.96555e+06 
6 1 4 4.075e-09 -1.46892e-08 2.43316e-08 4.00275e-08 0 0 0 0.0387451 -0.100184 -0.642822 -1.95033e-12 -6.56257e-13 -8.97627e-13 -2.44961e+07 -1.06315e+07 4.95636e+06 
20 1 13 1.0075e-08 1.91949e-08 -7.95596e-09 4.61221e-08 0 0 0 -0.0195488 -0.0178911 -0.031528 -1.23522e-12 -3.65679e-14 -1.34681e-12 -7.40839e+06 -3.51853e+06 -1.04869e+06 
7 1 8 6.075e-09 -1.21112e-08 1.58481e-08 4.48596e-08 0 0 0 0.022691 0.00582136 -0.452956 7.81572e-13 -8.79643e-13 -4.92366e-13 -1.72532e+07 -9.35647e+06 1.16293e+06 
11 1 6 5.075e-09 -6.20244e-10 1.01277e-08 5.52395e-08 0 0 0 -0.0150031 0.229024 -0.267697 -7.74495e-13 4.02492e-13 -5.77248e-13 -2.06901e+07 -1.2926e+06 -4.05976e+06 
12 1 4 4.075e-09 -5.39774e-09 8.85084e-09 4.76575e-08 0 0 0 -0.00117505 0.0625753 -0.249525 1.18221e-12 -6.11448e-13 -5.82259e-13 -2.80141e+07 -4.19886e+06 -2.61226e+06 
19 1 12 9.075e-09 6.64303e-09 6.23916e-09 4.31983e-08 0 0 0 0.00285115 -0.0327562 -0.183719 2.28281e-12 2.42471e-13 1.8316e-13 -1.0264e+07 -1.42085e+06 -981605 
8 1 4 4.075e-09 1.61464e-08 1.87252e-08 4.90166e-08 0 0 0 0.0244114 0.0935233 -0.383266 2.87946e-13 9.52237e-13 -1.13261e-12 -1.81055e+07 -1.47573e+06 -1.35464e+06 
13 1 10 7.575e-09 -1.74381e-09 3.6558e-08 6.03131e-08 0 0 0 0.0577043 0.29551 -0.663793 4.36504e-13 -1.79263e-12 2.52411e-12 -1.41572e+07 -2.51472e+06 -3.62029e+06 
9 1 5 4.575e-09 1.53625e-08 2.65132e-08 4.56235e-08 0 0 0 0.0397957 0.0357269 -0.519773 -6.77963e-13 -6.90523e-13 -2.22522e-13 -1.72941e+07 1.78546e+06 -3.04752e+06 
10 1 12 9.075e-09 4.38911e-09 2.30432e-08 5.28438e-08 0 0 0 0.0279628 0.174943 -0.46898 -9.41063e-13 -6.47671e-13 -6.21987e-14 -1.29919e+07 -1.33679e+06 -2.73743e+06 
14 1 4 4.075e-09 -1.24309e-08 3.50144e-08 6.44296e-08 0 0 0 0.0467013 0.418535 -0.646649 -7.82351e-13 -8.71484e-14 -1.91181e-12 -2.04372e+07 1.85628e+06 -7.49985e+06 
