ITEM: TIMESTEP
85000
ITEM: NUMBER OF ATOMS
31
ITEM: BOX BOUNDS mm mm ss
-8.47369e-08 8.47369e-08
-8.47369e-08 8.47369e-08
-2.01588e-11 8.53467e-08
ITEM: ATOMS id mol type radius x y z ix iy iz vx vy vz fx fy fz omegax omegay omegaz 
21 1 4 4.075e-09 -9.70318e-09 -2.73568e-08 2.12572e-08 0 0 0 0.0977835 -0.220479 0.00264679 -1.22802e-12 -9.082e-12 5.09225e-13 -1.61949e+07 -6.81989e+06 -9.71026e+06 
30 1 9 6.575e-09 1.18992e-08 -4.84259e-08 3.64543e-08 0 0 0 -0.189162 -0.217164 0.396699 1.4102e-12 -1.68023e-12 7.91102e-13 -71487.4 1.09334e+06 -3.26119e+06 
32 1 2 3.075e-09 2.04215e-08 -5.13927e-08 3.96821e-08 0 0 0 -0.198822 -0.249362 0.391109 -1.88789e-13 -4.26364e-14 1.34933e-12 1.0006e+07 -6.08007e+06 333989 
29 1 2 3.075e-09 1.17814e-08 -4.27727e-08 2.87299e-08 0 0 0 -0.0715229 -0.269607 0.357461 6.65778e-13 -2.13965e-12 -1.94559e-12 -1.90987e+07 -2.94582e+07 -1.59363e+07 
22 1 8 6.075e-09 -7.79171e-10 -2.64122e-08 2.57557e-08 0 0 0 0.0654216 -0.185059 0.0289379 -2.51787e-12 -5.37126e-12 -3.61176e-12 -1.22399e+07 -5.20548e+06 -3.29508e+06 
27 1 8 6.075e-09 1.67954e-09 -3.55169e-08 3.32294e-08 0 0 0 -0.00140283 -0.116714 0.145738 1.16859e-11 7.37288e-12 1.28543e-11 -6.55494e+06 -4.43771e+06 -6.88396e+06 
28 1 1 2.575e-09 6.74396e-09 -4.04379e-08 2.84046e-08 0 0 0 -0.0251034 -0.202098 0.22237 -8.72539e-13 1.53749e-12 9.79758e-13 -8.55644e+06 -8.25258e+06 -1.52362e+07 
31 1 8 6.075e-09 6.10834e-09 -2.63975e-08 3.98476e-08 0 0 0 -0.00210013 -0.0675282 0.0635014 -3.07836e-12 1.41725e-12 -7.49402e-12 -1.007e+07 -4.8462e+06 -4.58252e+06 
24 1 11 8.575e-09 -3.15365e-09 -1.59237e-08 3.56006e-08 0 0 0 0.0536595 -0.0813188 -0.0806443 -6.30239e-12 4.90516e-12 -2.79093e-12 -9.01197e+06 -4.82973e+06 -2.14474e+06 
25 1 4 4.075e-09 -2.40606e-10 -3.92892e-09 3.80732e-08 0 0 0 0.0565757 -0.0543281 -0.210241 -1.33964e-13 5.26548e-13 2.87023e-14 -1.79491e+07 -7.07785e+06 -233529 
23 1 6 5.075e-09 8.45125e-09 -2.11776e-08 2.25398e-08 0 0 0 0.101127 -0.250084 0.00655817 -1.11906e-12 2.82783e-12 -7.85698e-13 -1.46049e+07 -7.37195e+06 -3.98509e+06 
2 1 7 5.575e-09 -3.26361e-08 1.35895e-08 2.64719e-08 0 0 0 -0.0522588 -0.291802 -0.294644 1.54153e-12 1.78342e-12 -9.08194e-13 -1.03861e+07 1.40335e+06 -1.65919e+06 
15 1 8 6.075e-09 1.3711e-08 1.03723e-08 2.99054e-08 0 0 0 0.0601924 -0.0865906 -0.302317 2.88687e-12 -1.04416e-12 2.0628e-13 -1.13521e+07 -5.56668e+06 4.67425e+06 
17 1 7 5.575e-09 1.80956e-08 1.9758e-09 2.31843e-08 0 0 0 0.125615 -0.148714 -0.181963 -3.87192e-13 1.25765e-13 -1.51275e-12 -1.2235e+07 -2.92594e+06 3.48316e+06 
16 1 5 4.575e-09 2.13039e-08 1.21177e-08 3.69988e-08 0 0 0 0.0239099 0.0281425 -0.29241 -1.01748e-12 1.65864e-12 1.82232e-12 -1.3786e+07 -2.65699e+06 2.77845e+06 
18 1 3 3.575e-09 2.85602e-08 8.88429e-09 3.84703e-08 0 0 0 0.0316093 0.091881 -0.189267 -2.73444e-13 -1.74071e-15 -4.12575e-13 -2.07297e+07 -1.09289e+07 8.2237e+06 
1 1 1 2.575e-09 -2.89173e-08 2.06946e-08 2.5773e-08 0 0 0 -0.03996 -0.303266 -0.413031 -2.62947e-13 1.59025e-12 -4.75007e-13 -1.93367e+07 5.46524e+06 -434085 
3 1 3 3.575e-09 -2.82061e-08 2.62537e-08 2.80209e-08 0 0 0 -0.0231214 -0.265997 -0.503786 -2.3186e-12 -2.6293e-12 2.41303e-12 -1.46239e+07 1.07403e+06 -3.44257e+06 
4 1 2 3.075e-09 -2.48812e-08 2.85483e-08 3.31971e-08 0 0 0 -0.0326391 -0.191987 -0.534129 7.89982e-13 -2.16578e-12 4.80575e-14 -1.70929e+07 -4.62638e+06 -2.98734e+06 
5 1 2 3.075e-09 -1.91141e-08 2.80441e-08 3.49529e-08 0 0 0 -0.0306228 -0.168083 -0.536994 9.13071e-13 1.82242e-12 -2.7081e-13 -1.81605e+07 9.67835e+06 1.89909e+06 
6 1 4 4.075e-09 -1.45838e-08 2.40614e-08 3.86001e-08 0 0 0 0.00941317 -0.086153 -0.501795 -1.54522e-12 2.76642e-13 1.61898e-12 -1.43627e+07 3.11384e+06 2.45501e+06 
20 1 13 1.0075e-08 1.92519e-08 -7.96772e-09 4.58825e-08 0 0 0 0.0538701 0.0533248 -0.163031 -2.69618e-12 3.22224e-12 -1.47819e-12 -7.39706e+06 -1.54748e+06 2.55972e+06 
7 1 8 6.075e-09 -1.20245e-08 1.58135e-08 4.38334e-08 0 0 0 0.00970404 -0.0219753 -0.409257 1.84461e-12 -1.58249e-12 -3.62055e-12 -9.64294e+06 -3.04655e+06 962759 
11 1 6 5.075e-09 -6.0232e-10 1.05902e-08 5.45217e-08 0 0 0 -0.00312692 0.0968708 -0.337216 -1.76582e-12 1.18554e-12 1.06221e-12 -8.88221e+06 -469777 -769041 
12 1 4 4.075e-09 -5.32892e-09 8.94778e-09 4.69783e-08 0 0 0 0.0107346 0.0199938 -0.327553 1.08688e-12 2.05995e-13 4.06689e-14 -1.18931e+07 -1.28564e+06 557654 
19 1 12 9.075e-09 6.72642e-09 6.18423e-09 4.2652e-08 0 0 0 0.0264678 0.00392178 -0.28984 1.42966e-12 -1.97041e-12 2.54051e-13 -6.98792e+06 -2.34178e+06 1.86372e+06 
8 1 4 4.075e-09 1.61949e-08 1.90543e-08 4.81022e-08 0 0 0 0.00807814 0.0770966 -0.363471 8.13256e-13 9.28291e-13 -6.83553e-13 -4.79757e+06 -1.92096e+06 1.418e+06 
13 1 10 7.575e-09 -1.77458e-09 3.71239e-08 5.8856e-08 0 0 0 -0.0165095 0.106192 -0.456105 1.90739e-14 -6.65836e-13 9.99202e-13 -4.86037e+06 -535223 1.13647e+06 
14 1 4 4.075e-09 -1.24862e-08 3.57406e-08 6.29658e-08 0 0 0 -0.0195498 0.135923 -0.453658 5.97432e-14 -1.1533e-12 1.35204e-13 -1.31607e+06 -395961 -4.72329e+06 
9 1 5 4.575e-09 1.53874e-08 2.67301e-08 4.44674e-08 0 0 0 0.00449544 0.0594252 -0.400321 1.5079e-13 -6.10168e-13 6.75066e-13 -4.54928e+06 -279548 719397 
10 1 12 9.075e-09 4.40611e-09 2.34323e-08 5.17575e-08 0 0 0 -0.000936534 0.0823052 -0.398684 4.10502e-13 -1.24741e-12 2.0216e-13 -2.94311e+06 -1.3883e+06 62315.8 
