ITEM: TIMESTEP
90000
ITEM: NUMBER OF ATOMS
31
ITEM: BOX BOUNDS mm mm ss
-8.47369e-08 8.47369e-08
-8.47369e-08 8.47369e-08
-2.01588e-11 8.41144e-08
ITEM: ATOMS id mol type radius x y z ix iy iz vx vy vz fx fy fz omegax omegay omegaz 
30 1 9 6.575e-09 1.18408e-08 -4.85776e-08 3.75251e-08 0 0 0 0.183147 0.0468539 0.210586 4.94145e-14 4.38838e-13 -1.87641e-12 -1.01973e+07 4.11117e+06 4.38923e+06 
32 1 2 3.075e-09 2.02974e-08 -5.14599e-08 4.09934e-08 0 0 0 0.214256 0.145018 0.217261 -3.42047e-13 -4.22183e-13 4.74624e-13 -2.87491e+07 5.55168e+06 6.32703e+06 
29 1 2 3.075e-09 1.18684e-08 -4.32554e-08 2.95681e-08 0 0 0 0.0953603 -0.0531838 0.141051 5.44764e-13 -1.28361e-12 -1.86139e-12 -1.94362e+07 1.29178e+07 9.62848e+06 
21 1 4 4.075e-09 -9.47203e-09 -2.79188e-08 2.12282e-08 0 0 0 0.0245998 -0.2168 0.055397 3.05579e-12 -7.69338e-12 2.77096e-12 -1.73834e+07 1.15951e+06 1.17511e+07 
22 1 8 6.075e-09 -5.98335e-10 -2.68479e-08 2.57975e-08 0 0 0 0.0159565 -0.151977 0.0253931 -1.31771e-11 -6.11291e-12 -1.45105e-11 -1.86952e+07 2.3332e+06 1.4181e+07 
27 1 8 6.075e-09 1.76741e-09 -3.57674e-08 3.35212e-08 0 0 0 0.0526903 -0.0977138 0.0796335 2.13884e-11 4.53191e-12 2.41678e-11 -1.14675e+07 5.33457e+06 6.45599e+06 
28 1 1 2.575e-09 6.86881e-09 -4.0896e-08 2.89587e-08 0 0 0 0.0660217 -0.126532 0.12361 -1.11191e-12 1.45374e-12 1.50527e-12 -2.40826e+07 4.97411e+06 1.04479e+07 
31 1 8 6.075e-09 6.16406e-09 -2.64961e-08 3.99459e-08 0 0 0 0.0572166 -0.0301885 0.00840196 -1.01229e-11 2.95878e-12 -1.54292e-11 -1.05514e+07 2.98896e+06 2.40188e+06 
23 1 6 5.075e-09 8.6768e-09 -2.17255e-08 2.253e-08 0 0 0 -0.00170613 -0.173039 -0.0459644 7.66945e-13 4.15984e-12 -1.3606e-12 -9.69108e+06 -283952 -273073 
24 1 11 8.575e-09 -3.0543e-09 -1.61251e-08 3.53672e-08 0 0 0 0.0166445 -0.0880137 -0.051748 -2.39498e-12 1.3659e-12 3.90559e-12 -8.00528e+06 2.82567e+06 2.78698e+06 
25 1 4 4.075e-09 -1.73436e-10 -4.06276e-09 3.75296e-08 0 0 0 -0.00505213 -0.0618788 -0.185183 3.16002e-12 -6.3838e-13 -2.05417e-12 -1.33503e+07 3.95653e+06 1.35464e+06 
2 1 7 5.575e-09 -3.27155e-08 1.32773e-08 2.57444e-08 0 0 0 0.0371449 -0.0891098 -0.372106 1.59939e-13 1.58986e-13 -3.54586e-13 -2.18684e+06 -2.08141e+06 -1.74855e+06 
1 1 1 2.575e-09 -2.89558e-08 2.0345e-08 2.49015e-08 0 0 0 0.052095 -0.0956576 -0.396315 1.636e-12 1.32661e-12 -1.85183e-12 -7.2717e+06 665531 -2.80346e+06 
15 1 8 6.075e-09 1.37638e-08 1.01519e-08 2.91209e-08 0 0 0 -0.0385569 -0.10961 -0.305782 -1.15198e-12 -7.66832e-14 -1.98456e-13 -6.97971e+06 3.57058e+06 -1.39735e+06 
17 1 7 5.575e-09 1.81682e-08 1.62623e-09 2.25777e-08 0 0 0 -0.0439655 -0.163459 -0.24191 -6.37165e-13 1.35806e-12 1.91802e-12 -9.15886e+06 -2.23954e+06 1.08355e+06 
16 1 5 4.575e-09 2.13415e-08 1.20654e-08 3.61871e-08 0 0 0 -0.018964 -0.0567829 -0.341042 -9.78588e-14 -2.55769e-13 -2.30333e-13 -1.01026e+07 1.11972e+06 892451 
18 1 3 3.575e-09 2.86007e-08 8.89027e-09 3.77673e-08 0 0 0 -0.0120684 -0.0156883 -0.288887 3.665e-13 1.68954e-13 5.9026e-13 -1.40917e+07 -5.46353e+06 5.43574e+06 
3 1 3 3.575e-09 -2.82012e-08 2.59543e-08 2.7006e-08 0 0 0 0.0356319 -0.0847677 -0.405743 -1.63017e-12 -1.41397e-12 2.20518e-12 -1.88514e+06 -2.37019e+07 -2.98018e+06 
4 1 2 3.075e-09 -2.48455e-08 2.83524e-08 3.21149e-08 0 0 0 0.0290542 -0.0374626 -0.421053 -4.31548e-13 -5.52566e-13 3.61191e-13 -1.28378e+07 2.56478e+07 5.9378e+06 
5 1 2 3.075e-09 -1.9074e-08 2.78721e-08 3.38634e-08 0 0 0 0.0278176 -0.0471487 -0.412575 -8.03484e-13 -3.49453e-13 -1.17059e-12 -6.95675e+06 -2.57215e+07 -1.1492e+07 
6 1 4 4.075e-09 -1.45447e-08 2.39615e-08 3.75888e-08 0 0 0 -0.0110573 -0.0501303 -0.360791 -2.08319e-12 -1.60792e-12 4.89982e-13 -7.27348e+06 1.37633e+07 416301 
20 1 13 1.0075e-08 1.92993e-08 -7.95034e-09 4.53317e-08 0 0 0 -0.0152125 -0.00633657 -0.208984 -7.91241e-12 9.35213e-12 1.17354e-12 -4.34194e+06 337587 465376 
7 1 8 6.075e-09 -1.19893e-08 1.57898e-08 4.29421e-08 0 0 0 0.000341293 -0.011545 -0.304913 1.07002e-11 3.15546e-12 1.00899e-12 -8.04542e+06 444355 -909269 
11 1 6 5.075e-09 -5.83334e-10 1.07371e-08 5.37156e-08 0 0 0 0.0164027 0.0415796 -0.271621 -9.14365e-12 6.77433e-12 1.12774e-14 -7.90093e+06 628701 -2.45666e+06 
12 1 4 4.075e-09 -5.29645e-09 8.97026e-09 4.61919e-08 0 0 0 0.00868321 0.00890652 -0.26263 -1.06358e-12 -6.26355e-13 1.84673e-13 -4.7981e+06 4.89709e+06 -1.80727e+06 
19 1 12 9.075e-09 6.76588e-09 6.15219e-09 4.19207e-08 0 0 0 -0.0178172 -0.0209539 -0.268409 1.06228e-11 -1.16041e-11 -2.59529e-12 -6.0595e+06 384601 826335 
8 1 4 4.075e-09 1.62184e-08 1.91968e-08 4.72546e-08 0 0 0 0.00595883 -0.00354279 -0.335452 1.13762e-12 7.01117e-13 7.38506e-14 -3.94339e+06 772255 -1.34349e+06 
13 1 10 7.575e-09 -1.8151e-09 3.72852e-08 5.78581e-08 0 0 0 0.0512023 0.0648221 -0.378752 1.32333e-13 2.3211e-12 -1.53536e-13 -3.85127e+06 441521 -1.87361e+06 
14 1 4 4.075e-09 -1.2539e-08 3.59122e-08 6.19393e-08 0 0 0 0.0505405 0.114446 -0.362976 9.75582e-14 2.55987e-13 9.49625e-13 820954 1.68305e+06 -7.34834e+06 
9 1 5 4.575e-09 1.53939e-08 2.68429e-08 4.35615e-08 0 0 0 0.0139176 -0.015554 -0.3638 -2.05526e-13 -1.38721e-12 1.21053e-12 -3.32531e+06 1.38243e+06 -965319 
10 1 12 9.075e-09 4.40884e-09 2.35643e-08 5.08546e-08 0 0 0 0.01457 0.0300621 -0.346059 -1.50881e-12 -6.45732e-12 6.45535e-13 -3.09658e+06 168151 -2.4875e+06 
