ITEM: TIMESTEP
95000
ITEM: NUMBER OF ATOMS
31
ITEM: BOX BOUNDS mm mm ss
-8.47369e-08 8.47369e-08
-8.47369e-08 8.47369e-08
-2.01588e-11 8.26139e-08
ITEM: ATOMS id mol type radius x y z ix iy iz vx vy vz fx fy fz omegax omegay omegaz 
30 1 9 6.575e-09 1.21711e-08 -4.87337e-08 3.7313e-08 0 0 0 -0.0197369 -0.0867945 -0.00322552 -3.34384e-12 2.50682e-12 1.32032e-12 5.33252e+06 2.8682e+06 -48527.1 
32 1 2 3.075e-09 2.06969e-08 -5.15952e-08 4.06256e-08 0 0 0 -0.00679631 -0.109538 -0.056206 -5.02079e-13 -3.01659e-15 7.22163e-13 1.33642e+07 5.60943e+06 1.93827e+06 
29 1 2 3.075e-09 1.20484e-08 -4.32957e-08 2.94356e-08 0 0 0 -0.0132986 -0.0507111 0.0234403 9.90689e-13 -1.18018e-12 -1.77499e-12 2.99052e+06 -1.02195e+07 -1.62441e+06 
21 1 4 4.075e-09 -9.41943e-09 -2.81731e-08 2.13195e-08 0 0 0 0.00721916 -0.0342545 -0.0366821 -3.78749e-12 4.14818e-12 -3.30092e-12 5.08161e+06 -6.87671e+06 -1.19725e+07 
22 1 8 6.075e-09 -5.36418e-10 -2.70251e-08 2.58516e-08 0 0 0 0.0096753 -0.0380739 -0.0206795 1.41732e-11 5.48823e-12 1.21822e-11 1.27709e+07 -5.02897e+06 -9.50842e+06 
27 1 8 6.075e-09 1.90587e-09 -3.59124e-08 3.35889e-08 0 0 0 -5.15269e-05 -0.023046 -0.00140762 -1.41019e-11 -5.36862e-12 -1.53077e-11 6.58336e+06 -3.11427e+06 -7.69773e+06 
28 1 1 2.575e-09 7.00691e-09 -4.0993e-08 2.89724e-08 0 0 0 -0.0064264 -0.0310468 0.0047552 -8.33445e-13 1.27071e-12 -1.95885e-12 944140 -2.07585e+06 -1.76503e+06 
31 1 8 6.075e-09 6.26569e-09 -2.66008e-08 3.99799e-08 0 0 0 -0.0116909 -0.0284264 -0.0199724 9.63685e-12 -8.16608e-13 1.30851e-11 4.2163e+06 -788006 -3.9817e+06 
23 1 6 5.075e-09 8.69771e-09 -2.18629e-08 2.2531e-08 0 0 0 0.0150107 -0.0333096 -0.0143638 -2.27154e-12 -2.42132e-12 1.38236e-12 -3.08195e+06 -1.27716e+06 -2.87869e+06 
24 1 11 8.575e-09 -3.01937e-09 -1.62899e-08 3.54006e-08 0 0 0 0.00864484 -0.0226065 -0.0264992 -1.42691e-12 -1.79846e-12 -9.45813e-12 -231687 -738773 -1.94112e+06 
25 1 4 4.075e-09 -1.94087e-10 -4.19828e-09 3.74709e-08 0 0 0 0.0482044 -0.0298251 -0.0445404 -2.26327e-12 8.5739e-13 1.00255e-12 -3.75135e+06 -584628 -2.83116e+06 
2 1 7 5.575e-09 -3.26193e-08 1.27627e-08 2.52413e-08 0 0 0 0.0106217 -0.263122 -0.143692 2.33397e-12 -1.08451e-12 -1.39347e-12 -4.73989e+06 -6.82161e+06 -2.8756e+06 
1 1 1 2.575e-09 -2.88048e-08 1.97724e-08 2.41865e-08 0 0 0 0.0411226 -0.290733 -0.161365 5.28148e-13 1.44152e-12 -4.0757e-13 -1.89944e+07 -1.0779e+07 -6.72171e+06 
15 1 8 6.075e-09 1.37822e-08 9.908e-09 2.89356e-08 0 0 0 0.0458964 -0.0601069 -0.0723795 -1.08315e-13 1.12474e-12 -1.5931e-12 -2.54604e+06 1.34351e+06 -2.94805e+06 
17 1 7 5.575e-09 1.8222e-08 1.26609e-09 2.25713e-08 0 0 0 0.0228291 -0.0895584 -0.0477188 2.87722e-13 -7.1411e-13 8.73133e-13 -2.37009e+06 -4.12188e+06 -4.08019e+06 
16 1 5 4.575e-09 2.13125e-08 1.19547e-08 3.60152e-08 0 0 0 0.0543092 -0.0610097 -0.0805671 -1.02289e-12 1.35716e-12 -6.66012e-13 -2.0438e+06 1.9309e+06 -1.38068e+06 
18 1 3 3.575e-09 2.85556e-08 8.81854e-09 3.77403e-08 0 0 0 0.050627 -0.0649395 -0.0778313 -4.40615e-13 -1.10626e-13 -8.94616e-13 -1.17424e+07 2.26302e+06 -2.33081e+06 
3 1 3 3.575e-09 -2.80227e-08 2.54632e-08 2.6048e-08 0 0 0 0.0381036 -0.267887 -0.251294 -2.28456e-12 1.96167e-13 -3.13939e-13 -1.18708e+07 -1.36562e+07 820584 
4 1 2 3.075e-09 -2.47027e-08 2.80397e-08 3.1093e-08 0 0 0 0.0352137 -0.195566 -0.289002 -2.93976e-12 3.05418e-13 7.32312e-13 -1.79458e+07 1.10012e+07 4.6409e+06 
5 1 2 3.075e-09 -1.89566e-08 2.75895e-08 3.29306e-08 0 0 0 0.0205541 -0.150014 -0.252371 -2.26545e-12 -2.20835e-12 2.3065e-12 -1.29144e+07 -2.21575e+07 -628829 
6 1 4 4.075e-09 -1.44943e-08 2.37879e-08 3.68448e-08 0 0 0 -0.00902791 -0.104821 -0.188849 5.51098e-12 2.73099e-13 4.07541e-13 -8.15328e+06 7.48094e+06 3.30139e+06 
20 1 13 1.0075e-08 1.92291e-08 -7.98713e-09 4.53653e-08 0 0 0 0.0379634 -0.0197018 -0.0241983 2.46126e-12 1.48785e-12 3.19114e-13 -1.98448e+06 1.07852e+06 -742960 
7 1 8 6.075e-09 -1.20125e-08 1.57462e-08 4.2425e-08 0 0 0 0.0420592 -0.0522214 -0.14524 -2.12745e-12 2.4239e-12 -2.36217e-12 -5.36611e+06 -421132 2.82298e+06 
11 1 6 5.075e-09 -7.07658e-10 1.09523e-08 5.34081e-08 0 0 0 -0.029904 0.0676464 -0.0770337 -4.21202e-12 1.16886e-12 -4.64799e-12 -6.62784e+06 -3.2899e+06 -3.1987e+06 
12 1 4 4.075e-09 -5.36762e-09 8.99101e-09 4.58995e-08 0 0 0 0.039346 -0.00716988 -0.0905419 -1.20335e-12 -5.14973e-14 -1.70646e-12 -1.09256e+07 -5.20363e+06 4.4278e+06 
19 1 12 9.075e-09 6.71628e-09 6.08303e-09 4.17514e-08 0 0 0 0.0507292 -0.0301344 -0.0618939 5.19137e-12 -2.38622e-12 2.44854e-12 -1.96166e+06 -153969 -319425 
8 1 4 4.075e-09 1.61554e-08 1.92509e-08 4.68528e-08 0 0 0 0.0634656 0.0889979 0.0544584 1.39978e-12 5.36558e-13 1.16791e-12 -1.04142e+07 -1.30272e+07 8.4744e+06 
13 1 10 7.575e-09 -1.85716e-09 3.75577e-08 5.70985e-08 0 0 0 -0.170638 0.0779825 -0.363288 -1.39854e-12 5.22832e-13 -1.58489e-11 -1.09047e+07 -1.09769e+07 6.76025e+06 
14 1 4 4.075e-09 -1.26117e-08 3.63378e-08 6.11473e-08 0 0 0 -0.212485 0.0492268 -0.484494 1.64235e-12 -2.24353e-12 1.5105e-12 -2.53503e+06 -1.31651e+07 4.99374e+06 
9 1 5 4.575e-09 1.53606e-08 2.68311e-08 4.30198e-08 0 0 0 0.0556794 0.0409549 -0.0387648 2.04297e-12 -1.45588e-12 3.06199e-12 -1.08665e+07 -1.0387e+07 6.7737e+06 
10 1 12 9.075e-09 4.34454e-09 2.37067e-08 5.03351e-08 0 0 0 -0.0180018 0.0434662 -0.151497 2.86551e-12 -3.83563e-12 6.13992e-12 -1.05324e+07 -1.15712e+07 4.28107e+06 
