LIGGGHTS (Version LIGGGHTS-PUBLIC 3.8.0, compiled 2025-08-04-02:49:58 by b80985, git commit unknown)
# Automatically generated inputfile for liggghts-with-bonds
################################################################################
# Define the atomstyle to be a hybrid of granular and molecular to use the molecule flag
atom_style      hybrid granular molecular

# Use SI Units throughout all data
units           si

# Periodic Boundary Conditions
boundary        m m s

# Optional Manual Processor configuration
#processors      X X X
newton          off

# Stepsize for outputs etc
variable        interv equal 5000

################################################################################
### NEIGHBORSLIST
# Let particles communicate within short range. Communicate velocity with ghost atoms
communicate     single vel yes
# Neighborslist cutoff
neighbor        3.0e-09 bin
neigh_modify    delay 0

################################################################################
### DATA INPUT
# Read the inputdata from datafile or alternatively from restart file
hard_particles  yes
read_data       data.aggregate
  orthogonal box = (-8.472e-08 -8.472e-08 0) to (8.472e-08 8.472e-08 2.01588e-07)
  1 by 1 by 1 MPI processor grid
  31 atoms
  0 = max # of 1-2 neighbors
  0 = max # of 1-3 neighbors
  0 = max # of 1-4 neighbors
  1 = max # of special neighbors

# Write Restartfiles

# Read the bond files
include         include.bonds
fix             b1 all property/global bondYoungs peratomtypepair 15 5.600e+10 5.600e+10 5.600e+10 5.600e+10 5.600e+10 5.600e+10 5.600e+10 5.600e+10 5.600e+10 5.600e+10 5.600e+10 5.600e+10 5.600e+10 5.600e+10 5.600e+10 5.600e+10 5.600e+10 5.600e+10 5.600e+10 5.600e+10 5.600e+10 5.600e+10 5.600e+10 5.600e+10 5.600e+10 5.600e+10 5.600e+10 5.600e+10 5.600e+10 5.600e+10 5.600e+10 5.600e+10 5.600e+10 5.600e+10 5.600e+10 5.600e+10 5.600e+10 5.600e+10 5.600e+10 5.600e+10 5.600e+10 5.600e+10 5.600e+10 5.600e+10 5.600e+10 5.600e+10 5.600e+10 5.600e+10 5.600e+10 5.600e+10 5.600e+10 5.600e+10 5.600e+10 5.600e+10 5.600e+10 5.600e+10 5.600e+10 5.600e+10 5.600e+10 5.600e+10 5.600e+10 5.600e+10 5.600e+10 5.600e+10 5.600e+10 5.600e+10 5.600e+10 5.600e+10 5.600e+10 5.600e+10 5.600e+10 5.600e+10 5.600e+10 5.600e+10 5.600e+10 5.600e+10 5.600e+10 5.600e+10 5.600e+10 5.600e+10 5.600e+10 5.600e+10 5.600e+10 5.600e+10 5.600e+10 5.600e+10 5.600e+10 5.600e+10 5.600e+10 5.600e+10 5.600e+10 5.600e+10 5.600e+10 5.600e+10 5.600e+10 5.600e+10 5.600e+10 5.600e+10 5.600e+10 5.600e+10 5.600e+10 5.600e+10 5.600e+10 5.600e+10 5.600e+10 5.600e+10 5.600e+10 5.600e+10 5.600e+10 5.600e+10 5.600e+10 5.600e+10 5.600e+10 5.600e+10 5.600e+10 5.600e+10 5.600e+10 5.600e+10 5.600e+10 5.600e+10 5.600e+10 5.600e+10 5.600e+10 5.600e+10 5.600e+10 5.600e+10 5.600e+10 5.600e+10 5.600e+10 5.600e+10 5.600e+10 5.600e+10 5.600e+10 5.600e+10 5.600e+10 5.600e+10 5.600e+10 5.600e+10 5.600e+10 5.600e+10 5.600e+10 5.600e+10 5.600e+10 5.600e+10 5.600e+10 5.600e+10 5.600e+10 5.600e+10 5.600e+10 5.600e+10 5.600e+10 5.600e+10 5.600e+10 5.600e+10 5.600e+10 5.600e+10 5.600e+10 5.600e+10 5.600e+10 5.600e+10 5.600e+10 5.600e+10 5.600e+10 5.600e+10 5.600e+10 5.600e+10 5.600e+10 5.600e+10 5.600e+10 5.600e+10 5.600e+10 5.600e+10 5.600e+10 5.600e+10 5.600e+10 5.600e+10 5.600e+10 5.600e+10 5.600e+10 5.600e+10 5.600e+10 5.600e+10 5.600e+10 5.600e+10 5.600e+10 5.600e+10 5.600e+10 5.600e+10 5.600e+10 5.600e+10 5.600e+10 5.600e+10 5.600e+10 5.600e+10 5.600e+10 5.600e+10 5.600e+10 5.600e+10 5.600e+10 5.600e+10 5.600e+10 5.600e+10 5.600e+10 5.600e+10 5.600e+10 5.600e+10 5.600e+10 5.600e+10 5.600e+10 5.600e+10 5.600e+10 5.600e+10 5.600e+10 5.600e+10 5.600e+10 5.600e+10 5.600e+10 5.600e+10 5.600e+10 5.600e+10 5.600e+10 5.600e+10 5.600e+10 5.600e+10 5.600e+10
fix             b2 all property/global bondPoisson peratomtypepair 15 2.800e-01 2.800e-01 2.800e-01 2.800e-01 2.800e-01 2.800e-01 2.800e-01 2.800e-01 2.800e-01 2.800e-01 2.800e-01 2.800e-01 2.800e-01 2.800e-01 2.800e-01 2.800e-01 2.800e-01 2.800e-01 2.800e-01 2.800e-01 2.800e-01 2.800e-01 2.800e-01 2.800e-01 2.800e-01 2.800e-01 2.800e-01 2.800e-01 2.800e-01 2.800e-01 2.800e-01 2.800e-01 2.800e-01 2.800e-01 2.800e-01 2.800e-01 2.800e-01 2.800e-01 2.800e-01 2.800e-01 2.800e-01 2.800e-01 2.800e-01 2.800e-01 2.800e-01 2.800e-01 2.800e-01 2.800e-01 2.800e-01 2.800e-01 2.800e-01 2.800e-01 2.800e-01 2.800e-01 2.800e-01 2.800e-01 2.800e-01 2.800e-01 2.800e-01 2.800e-01 2.800e-01 2.800e-01 2.800e-01 2.800e-01 2.800e-01 2.800e-01 2.800e-01 2.800e-01 2.800e-01 2.800e-01 2.800e-01 2.800e-01 2.800e-01 2.800e-01 2.800e-01 2.800e-01 2.800e-01 2.800e-01 2.800e-01 2.800e-01 2.800e-01 2.800e-01 2.800e-01 2.800e-01 2.800e-01 2.800e-01 2.800e-01 2.800e-01 2.800e-01 2.800e-01 2.800e-01 2.800e-01 2.800e-01 2.800e-01 2.800e-01 2.800e-01 2.800e-01 2.800e-01 2.800e-01 2.800e-01 2.800e-01 2.800e-01 2.800e-01 2.800e-01 2.800e-01 2.800e-01 2.800e-01 2.800e-01 2.800e-01 2.800e-01 2.800e-01 2.800e-01 2.800e-01 2.800e-01 2.800e-01 2.800e-01 2.800e-01 2.800e-01 2.800e-01 2.800e-01 2.800e-01 2.800e-01 2.800e-01 2.800e-01 2.800e-01 2.800e-01 2.800e-01 2.800e-01 2.800e-01 2.800e-01 2.800e-01 2.800e-01 2.800e-01 2.800e-01 2.800e-01 2.800e-01 2.800e-01 2.800e-01 2.800e-01 2.800e-01 2.800e-01 2.800e-01 2.800e-01 2.800e-01 2.800e-01 2.800e-01 2.800e-01 2.800e-01 2.800e-01 2.800e-01 2.800e-01 2.800e-01 2.800e-01 2.800e-01 2.800e-01 2.800e-01 2.800e-01 2.800e-01 2.800e-01 2.800e-01 2.800e-01 2.800e-01 2.800e-01 2.800e-01 2.800e-01 2.800e-01 2.800e-01 2.800e-01 2.800e-01 2.800e-01 2.800e-01 2.800e-01 2.800e-01 2.800e-01 2.800e-01 2.800e-01 2.800e-01 2.800e-01 2.800e-01 2.800e-01 2.800e-01 2.800e-01 2.800e-01 2.800e-01 2.800e-01 2.800e-01 2.800e-01 2.800e-01 2.800e-01 2.800e-01 2.800e-01 2.800e-01 2.800e-01 2.800e-01 2.800e-01 2.800e-01 2.800e-01 2.800e-01 2.800e-01 2.800e-01 2.800e-01 2.800e-01 2.800e-01 2.800e-01 2.800e-01 2.800e-01 2.800e-01 2.800e-01 2.800e-01 2.800e-01 2.800e-01 2.800e-01 2.800e-01 2.800e-01 2.800e-01 2.800e-01 2.800e-01 2.800e-01 2.800e-01 2.800e-01 2.800e-01 2.800e-01 2.800e-01 2.800e-01 2.800e-01
fix             b3 all property/global bondTensileStrength peratomtypepair 15 4.200e+09 4.200e+09 4.200e+09 4.200e+09 4.200e+09 4.200e+09 4.200e+09 4.200e+09 4.200e+09 4.200e+09 4.200e+09 4.200e+09 4.200e+09 4.200e+09 4.200e+09 4.200e+09 4.200e+09 4.200e+09 4.200e+09 4.200e+09 4.200e+09 4.200e+09 4.200e+09 4.200e+09 4.200e+09 4.200e+09 4.200e+09 4.200e+09 4.200e+09 4.200e+09 4.200e+09 4.200e+09 4.200e+09 4.200e+09 4.200e+09 4.200e+09 4.200e+09 4.200e+09 4.200e+09 4.200e+09 4.200e+09 4.200e+09 4.200e+09 4.200e+09 4.200e+09 4.200e+09 4.200e+09 4.200e+09 4.200e+09 4.200e+09 4.200e+09 4.200e+09 4.200e+09 4.200e+09 4.200e+09 4.200e+09 4.200e+09 4.200e+09 4.200e+09 4.200e+09 4.200e+09 4.200e+09 4.200e+09 4.200e+09 4.200e+09 4.200e+09 4.200e+09 4.200e+09 4.200e+09 4.200e+09 4.200e+09 4.200e+09 4.200e+09 4.200e+09 4.200e+09 4.200e+09 4.200e+09 4.200e+09 4.200e+09 4.200e+09 4.200e+09 4.200e+09 4.200e+09 4.200e+09 4.200e+09 4.200e+09 4.200e+09 4.200e+09 4.200e+09 4.200e+09 4.200e+09 4.200e+09 4.200e+09 4.200e+09 4.200e+09 4.200e+09 4.200e+09 4.200e+09 4.200e+09 4.200e+09 4.200e+09 4.200e+09 4.200e+09 4.200e+09 4.200e+09 4.200e+09 4.200e+09 4.200e+09 4.200e+09 4.200e+09 4.200e+09 4.200e+09 4.200e+09 4.200e+09 4.200e+09 4.200e+09 4.200e+09 4.200e+09 4.200e+09 4.200e+09 4.200e+09 4.200e+09 4.200e+09 4.200e+09 4.200e+09 4.200e+09 4.200e+09 4.200e+09 4.200e+09 4.200e+09 4.200e+09 4.200e+09 4.200e+09 4.200e+09 4.200e+09 4.200e+09 4.200e+09 4.200e+09 4.200e+09 4.200e+09 4.200e+09 4.200e+09 4.200e+09 4.200e+09 4.200e+09 4.200e+09 4.200e+09 4.200e+09 4.200e+09 4.200e+09 4.200e+09 4.200e+09 4.200e+09 4.200e+09 4.200e+09 4.200e+09 4.200e+09 4.200e+09 4.200e+09 4.200e+09 4.200e+09 4.200e+09 4.200e+09 4.200e+09 4.200e+09 4.200e+09 4.200e+09 4.200e+09 4.200e+09 4.200e+09 4.200e+09 4.200e+09 4.200e+09 4.200e+09 4.200e+09 4.200e+09 4.200e+09 4.200e+09 4.200e+09 4.200e+09 4.200e+09 4.200e+09 4.200e+09 4.200e+09 4.200e+09 4.200e+09 4.200e+09 4.200e+09 4.200e+09 4.200e+09 4.200e+09 4.200e+09 4.200e+09 4.200e+09 4.200e+09 4.200e+09 4.200e+09 4.200e+09 4.200e+09 4.200e+09 4.200e+09 4.200e+09 4.200e+09 4.200e+09 4.200e+09 4.200e+09 4.200e+09 4.200e+09 4.200e+09 4.200e+09 4.200e+09 4.200e+09 4.200e+09 4.200e+09 4.200e+09 4.200e+09 4.200e+09 4.200e+09 4.200e+09 4.200e+09 4.200e+09 4.200e+09 4.200e+09 4.200e+09 4.200e+09
fix             b4 all property/global bondShearStrength peratomtypepair 15 4.200e+09 4.200e+09 4.200e+09 4.200e+09 4.200e+09 4.200e+09 4.200e+09 4.200e+09 4.200e+09 4.200e+09 4.200e+09 4.200e+09 4.200e+09 4.200e+09 4.200e+09 4.200e+09 4.200e+09 4.200e+09 4.200e+09 4.200e+09 4.200e+09 4.200e+09 4.200e+09 4.200e+09 4.200e+09 4.200e+09 4.200e+09 4.200e+09 4.200e+09 4.200e+09 4.200e+09 4.200e+09 4.200e+09 4.200e+09 4.200e+09 4.200e+09 4.200e+09 4.200e+09 4.200e+09 4.200e+09 4.200e+09 4.200e+09 4.200e+09 4.200e+09 4.200e+09 4.200e+09 4.200e+09 4.200e+09 4.200e+09 4.200e+09 4.200e+09 4.200e+09 4.200e+09 4.200e+09 4.200e+09 4.200e+09 4.200e+09 4.200e+09 4.200e+09 4.200e+09 4.200e+09 4.200e+09 4.200e+09 4.200e+09 4.200e+09 4.200e+09 4.200e+09 4.200e+09 4.200e+09 4.200e+09 4.200e+09 4.200e+09 4.200e+09 4.200e+09 4.200e+09 4.200e+09 4.200e+09 4.200e+09 4.200e+09 4.200e+09 4.200e+09 4.200e+09 4.200e+09 4.200e+09 4.200e+09 4.200e+09 4.200e+09 4.200e+09 4.200e+09 4.200e+09 4.200e+09 4.200e+09 4.200e+09 4.200e+09 4.200e+09 4.200e+09 4.200e+09 4.200e+09 4.200e+09 4.200e+09 4.200e+09 4.200e+09 4.200e+09 4.200e+09 4.200e+09 4.200e+09 4.200e+09 4.200e+09 4.200e+09 4.200e+09 4.200e+09 4.200e+09 4.200e+09 4.200e+09 4.200e+09 4.200e+09 4.200e+09 4.200e+09 4.200e+09 4.200e+09 4.200e+09 4.200e+09 4.200e+09 4.200e+09 4.200e+09 4.200e+09 4.200e+09 4.200e+09 4.200e+09 4.200e+09 4.200e+09 4.200e+09 4.200e+09 4.200e+09 4.200e+09 4.200e+09 4.200e+09 4.200e+09 4.200e+09 4.200e+09 4.200e+09 4.200e+09 4.200e+09 4.200e+09 4.200e+09 4.200e+09 4.200e+09 4.200e+09 4.200e+09 4.200e+09 4.200e+09 4.200e+09 4.200e+09 4.200e+09 4.200e+09 4.200e+09 4.200e+09 4.200e+09 4.200e+09 4.200e+09 4.200e+09 4.200e+09 4.200e+09 4.200e+09 4.200e+09 4.200e+09 4.200e+09 4.200e+09 4.200e+09 4.200e+09 4.200e+09 4.200e+09 4.200e+09 4.200e+09 4.200e+09 4.200e+09 4.200e+09 4.200e+09 4.200e+09 4.200e+09 4.200e+09 4.200e+09 4.200e+09 4.200e+09 4.200e+09 4.200e+09 4.200e+09 4.200e+09 4.200e+09 4.200e+09 4.200e+09 4.200e+09 4.200e+09 4.200e+09 4.200e+09 4.200e+09 4.200e+09 4.200e+09 4.200e+09 4.200e+09 4.200e+09 4.200e+09 4.200e+09 4.200e+09 4.200e+09 4.200e+09 4.200e+09 4.200e+09 4.200e+09 4.200e+09 4.200e+09 4.200e+09 4.200e+09 4.200e+09 4.200e+09 4.200e+09 4.200e+09 4.200e+09 4.200e+09 4.200e+09 4.200e+09 4.200e+09 4.200e+09 4.200e+09 4.200e+09
fix             b5 all property/global bondRadius peratomtypepair 15 1.200e-09 1.200e-09 1.200e-09 1.200e-09 1.200e-09 1.200e-09 1.200e-09 1.200e-09 1.200e-09 1.200e-09 1.200e-09 1.200e-09 1.200e-09 1.200e-09 1.200e-09 1.200e-09 1.440e-09 1.440e-09 1.440e-09 1.440e-09 1.440e-09 1.440e-09 1.440e-09 1.440e-09 1.440e-09 1.440e-09 1.440e-09 1.440e-09 1.440e-09 1.440e-09 1.200e-09 1.440e-09 1.680e-09 1.680e-09 1.680e-09 1.680e-09 1.680e-09 1.680e-09 1.680e-09 1.680e-09 1.680e-09 1.680e-09 1.680e-09 1.680e-09 1.680e-09 1.200e-09 1.440e-09 1.680e-09 1.920e-09 1.920e-09 1.920e-09 1.920e-09 1.920e-09 1.920e-09 1.920e-09 1.920e-09 1.920e-09 1.920e-09 1.920e-09 1.920e-09 1.200e-09 1.440e-09 1.680e-09 1.920e-09 2.160e-09 2.160e-09 2.160e-09 2.160e-09 2.160e-09 2.160e-09 2.160e-09 2.160e-09 2.160e-09 2.160e-09 2.160e-09 1.200e-09 1.440e-09 1.680e-09 1.920e-09 2.160e-09 2.400e-09 2.400e-09 2.400e-09 2.400e-09 2.400e-09 2.400e-09 2.400e-09 2.400e-09 2.400e-09 2.400e-09 1.200e-09 1.440e-09 1.680e-09 1.920e-09 2.160e-09 2.400e-09 2.640e-09 2.640e-09 2.640e-09 2.640e-09 2.640e-09 2.640e-09 2.640e-09 2.640e-09 2.640e-09 1.200e-09 1.440e-09 1.680e-09 1.920e-09 2.160e-09 2.400e-09 2.640e-09 2.880e-09 2.880e-09 2.880e-09 2.880e-09 2.880e-09 2.880e-09 2.880e-09 2.880e-09 1.200e-09 1.440e-09 1.680e-09 1.920e-09 2.160e-09 2.400e-09 2.640e-09 2.880e-09 3.120e-09 3.120e-09 3.120e-09 3.120e-09 3.120e-09 3.120e-09 3.120e-09 1.200e-09 1.440e-09 1.680e-09 1.920e-09 2.160e-09 2.400e-09 2.640e-09 2.880e-09 3.120e-09 3.600e-09 3.600e-09 3.600e-09 3.600e-09 3.600e-09 3.600e-09 1.200e-09 1.440e-09 1.680e-09 1.920e-09 2.160e-09 2.400e-09 2.640e-09 2.880e-09 3.120e-09 3.600e-09 4.080e-09 4.080e-09 4.080e-09 4.080e-09 4.080e-09 1.200e-09 1.440e-09 1.680e-09 1.920e-09 2.160e-09 2.400e-09 2.640e-09 2.880e-09 3.120e-09 3.600e-09 4.080e-09 4.320e-09 4.320e-09 4.320e-09 4.320e-09 1.200e-09 1.440e-09 1.680e-09 1.920e-09 2.160e-09 2.400e-09 2.640e-09 2.880e-09 3.120e-09 3.600e-09 4.080e-09 4.320e-09 4.800e-09 4.800e-09 4.800e-09 1.200e-09 1.440e-09 1.680e-09 1.920e-09 2.160e-09 2.400e-09 2.640e-09 2.880e-09 3.120e-09 3.600e-09 4.080e-09 4.320e-09 4.800e-09 2.376e+01 2.376e+01 1.200e-09 1.440e-09 1.680e-09 1.920e-09 2.160e-09 2.400e-09 2.640e-09 2.880e-09 3.120e-09 3.600e-09 4.080e-09 4.320e-09 4.800e-09 2.376e+01 2.376e+01
fix             b6 all property/global bondMaxSeparationDistance peratomtypepair 15 5.050e-09 5.555e-09 6.060e-09 6.565e-09 7.070e-09 7.575e-09 8.080e-09 8.585e-09 9.090e-09 1.010e-08 1.111e-08 1.162e-08 1.262e-08 5.000e+01 5.000e+01 5.555e-09 6.060e-09 6.565e-09 7.070e-09 7.575e-09 8.080e-09 8.585e-09 9.090e-09 9.595e-09 1.060e-08 1.162e-08 1.212e-08 1.313e-08 5.000e+01 5.000e+01 6.060e-09 6.565e-09 7.070e-09 7.575e-09 8.080e-09 8.585e-09 9.090e-09 9.595e-09 1.010e-08 1.111e-08 1.212e-08 1.262e-08 1.363e-08 5.000e+01 5.000e+01 6.565e-09 7.070e-09 7.575e-09 8.080e-09 8.585e-09 9.090e-09 9.595e-09 1.010e-08 1.061e-08 1.162e-08 1.262e-08 1.313e-08 1.414e-08 5.000e+01 5.000e+01 7.070e-09 7.575e-09 8.080e-09 8.585e-09 9.090e-09 9.595e-09 1.010e-08 1.060e-08 1.111e-08 1.212e-08 1.313e-08 1.363e-08 1.464e-08 5.000e+01 5.000e+01 7.575e-09 8.080e-09 8.585e-09 9.090e-09 9.595e-09 1.010e-08 1.061e-08 1.111e-08 1.162e-08 1.262e-08 1.364e-08 1.414e-08 1.515e-08 5.000e+01 5.000e+01 8.080e-09 8.585e-09 9.090e-09 9.595e-09 1.010e-08 1.061e-08 1.111e-08 1.162e-08 1.212e-08 1.313e-08 1.414e-08 1.465e-08 1.566e-08 5.000e+01 5.000e+01 8.585e-09 9.090e-09 9.595e-09 1.010e-08 1.060e-08 1.111e-08 1.162e-08 1.212e-08 1.262e-08 1.363e-08 1.465e-08 1.515e-08 1.616e-08 5.000e+01 5.000e+01 9.090e-09 9.595e-09 1.010e-08 1.061e-08 1.111e-08 1.162e-08 1.212e-08 1.262e-08 1.313e-08 1.414e-08 1.515e-08 1.566e-08 1.666e-08 5.000e+01 5.000e+01 1.010e-08 1.060e-08 1.111e-08 1.162e-08 1.212e-08 1.262e-08 1.313e-08 1.363e-08 1.414e-08 1.515e-08 1.616e-08 1.666e-08 1.767e-08 5.000e+01 5.000e+01 1.111e-08 1.162e-08 1.212e-08 1.262e-08 1.313e-08 1.364e-08 1.414e-08 1.465e-08 1.515e-08 1.616e-08 1.717e-08 1.767e-08 1.869e-08 5.000e+01 5.000e+01 1.162e-08 1.212e-08 1.262e-08 1.313e-08 1.363e-08 1.414e-08 1.465e-08 1.515e-08 1.566e-08 1.666e-08 1.767e-08 1.818e-08 1.919e-08 5.000e+01 5.000e+01 1.262e-08 1.313e-08 1.363e-08 1.414e-08 1.464e-08 1.515e-08 1.566e-08 1.616e-08 1.666e-08 1.767e-08 1.869e-08 1.919e-08 2.020e-08 5.000e+01 5.000e+01 5.000e+01 5.000e+01 5.000e+01 5.000e+01 5.000e+01 5.000e+01 5.000e+01 5.000e+01 5.000e+01 5.000e+01 5.000e+01 5.000e+01 5.000e+01 9.999e+01 9.999e+01 5.000e+01 5.000e+01 5.000e+01 5.000e+01 5.000e+01 5.000e+01 5.000e+01 5.000e+01 5.000e+01 5.000e+01 5.000e+01 5.000e+01 5.000e+01 9.999e+01 9.999e+01

# Read the include file with the potentials and the interaction parameters
# Kn, Kt, gamman, gammat, etc.
include         include.potential_params_noadhesion
# parameter file for liggghts input created by using the following settings: humidity 0.5, equi_dist 0.57, delta_h 0.15, sigma_solv = 0.21, F_solv_b = -11, F_solv_m = -2.4
# Unit style si
########################## Pair Potential Parameters ###########################
############### Material properties required for gran pair style ###############
variable        youngWall equal 5.60e+10
variable        cRest equal 0.10
# Use kWall for the wall that should have cohesion (type 14)
variable        kWall equal 3.0e+09
# Use kWall2 as optional cohesion for the other wall (type 15)
variable        kWall2 equal 0
fix             p1 all property/global kn peratomtypepair 15 26269847660.5 27542456333.9 28599787879.9 29490898487.3 30233823792.7 30883865702.4 31427936418.8 31938079489.1 32368514561.9 33099991733.3 33706180576.5 33971132805.9 34427847204.5 38368178628.9 38368178628.9 27542456333.9 24397851801.9 25454560499.3 26331556548.9 27080242755.4 27745025079.0 28311511323.6 28819229358.1 29272629745.3 30038054097.0 30669401660.7 30935660272.7 31423502542.7 35667754019.4 35667754019.4 28599787879.9 25454560499.3 26616731334.5 27605382255.7 28461728687.9 29211642102.4 29875801283.4 30455967521.0 30972502153.5 31846210778.0 32594103257.3 32908124884.5 33479221305.6 38575117821.7 38575117821.7 29490898487.3 26331556548.9 27605382255.7 28241756692.3 29177728695.8 29998727121.6 30714542497.3 31356207877.0 31944089453.9 32923053574.6 33749437684.4 34109211939.4 34739522669.9 40642550602.6 40642550602.6 30233823792.7 27080242755.4 28461728687.9 29177728695.8 30197365759.9 31095070134.7 31888159433.4 32588593579.2 33229923622.6 34327286260.2 35254824891.1 35644095672.5 36365034568.7 43136510016.0 43136510016.0 30883865702.4 27745025079.0 29211642102.4 29998727121.6 31095070134.7 27620050530.1 28370693383.4 29049392160.3 29652228270.7 30703016494.1 31591915275.4 31972104467.0 32669875244.4 39311643771.7 39311643771.7 31427936418.8 28311511323.6 29875801283.4 30714542497.3 31888159433.4 28370693383.4 29181101372.8 29899722665.6 30556783976.0 31688600225.5 32658995761.9 33082124318.5 33830290433.9 41220913073.9 41220913073.9 31938079489.1 28819229358.1 30455967521.0 31356207877.0 32588593579.2 29049392160.3 29899722665.6 30676752647.9 31372096472.2 32589918924.0 33624891248.1 34077270489.9 34900327730.7 43029289611.5 43029289611.5 32368514561.9 29272629745.3 30972502153.5 31944089453.9 33229923622.6 29652228270.7 30556783976.0 31372096472.2 32117481254.1 33414274640.2 34509153130.6 34999013839.9 35881330689.6 44752592658.6 44752592658.6 33099991733.3 30038054097.0 31846210778.0 32923053574.6 34327286260.2 30703016494.1 31688600225.5 32589918924.0 33414274640.2 34851508076.6 36078526987.5 36640674097.6 37616669165.8 47959590556.3 47959590556.3 33706180576.5 30669401660.7 32594103257.3 33749437684.4 35254824891.1 31591915275.4 32658995761.9 33624891248.1 34509153130.6 36078526987.5 37433886549.7 38029639159.8 39128384862.9 50891097845.0 50891097845.0 33971132805.9 30935660272.7 32908124884.5 34109211939.4 35644095672.5 31972104467.0 33082124318.5 34077270489.9 34999013839.9 36640674097.6 38029639159.8 38670720782.5 39807371613.8 52277145130.4 52277145130.4 34427847204.5 31423502542.7 33479221305.6 34739522669.9 36365034568.7 32669875244.4 33830290433.9 34900327730.7 35881330689.6 37616669165.8 39128384862.9 39807371613.8 41047639335.4 54881502066.6 54881502066.6 38368178628.9 35667754019.4 38575117821.7 40642550602.6 43136510016.0 39311643771.7 41220913073.9 43029289611.5 44752592658.6 47959590556.3 50891097845.0 52277145130.4 54881502066.6 99326914963.0 99326914963.0 38368178628.9 35667754019.4 38575117821.7 40642550602.6 43136510016.0 39311643771.7 41220913073.9 43029289611.5 44752592658.6 47959590556.3 50891097845.0 52277145130.4 54881502066.6 99326914963.0 99326914963.0
fix             p2 all property/global kt peratomtypepair 15 26269847660.5 27542456333.9 28599787879.9 29490898487.3 30233823792.7 30883865702.4 31427936418.8 31938079489.1 32368514561.9 33099991733.3 33706180576.5 33971132805.9 34427847204.5 38368178628.9 38368178628.9 27542456333.9 24397851801.9 25454560499.3 26331556548.9 27080242755.4 27745025079.0 28311511323.6 28819229358.1 29272629745.3 30038054097.0 30669401660.7 30935660272.7 31423502542.7 35667754019.4 35667754019.4 28599787879.9 25454560499.3 26616731334.5 27605382255.7 28461728687.9 29211642102.4 29875801283.4 30455967521.0 30972502153.5 31846210778.0 32594103257.3 32908124884.5 33479221305.6 38575117821.7 38575117821.7 29490898487.3 26331556548.9 27605382255.7 28241756692.3 29177728695.8 29998727121.6 30714542497.3 31356207877.0 31944089453.9 32923053574.6 33749437684.4 34109211939.4 34739522669.9 40642550602.6 40642550602.6 30233823792.7 27080242755.4 28461728687.9 29177728695.8 30197365759.9 31095070134.7 31888159433.4 32588593579.2 33229923622.6 34327286260.2 35254824891.1 35644095672.5 36365034568.7 43136510016.0 43136510016.0 30883865702.4 27745025079.0 29211642102.4 29998727121.6 31095070134.7 27620050530.1 28370693383.4 29049392160.3 29652228270.7 30703016494.1 31591915275.4 31972104467.0 32669875244.4 39311643771.7 39311643771.7 31427936418.8 28311511323.6 29875801283.4 30714542497.3 31888159433.4 28370693383.4 29181101372.8 29899722665.6 30556783976.0 31688600225.5 32658995761.9 33082124318.5 33830290433.9 41220913073.9 41220913073.9 31938079489.1 28819229358.1 30455967521.0 31356207877.0 32588593579.2 29049392160.3 29899722665.6 30676752647.9 31372096472.2 32589918924.0 33624891248.1 34077270489.9 34900327730.7 43029289611.5 43029289611.5 32368514561.9 29272629745.3 30972502153.5 31944089453.9 33229923622.6 29652228270.7 30556783976.0 31372096472.2 32117481254.1 33414274640.2 34509153130.6 34999013839.9 35881330689.6 44752592658.6 44752592658.6 33099991733.3 30038054097.0 31846210778.0 32923053574.6 34327286260.2 30703016494.1 31688600225.5 32589918924.0 33414274640.2 34851508076.6 36078526987.5 36640674097.6 37616669165.8 47959590556.3 47959590556.3 33706180576.5 30669401660.7 32594103257.3 33749437684.4 35254824891.1 31591915275.4 32658995761.9 33624891248.1 34509153130.6 36078526987.5 37433886549.7 38029639159.8 39128384862.9 50891097845.0 50891097845.0 33971132805.9 30935660272.7 32908124884.5 34109211939.4 35644095672.5 31972104467.0 33082124318.5 34077270489.9 34999013839.9 36640674097.6 38029639159.8 38670720782.5 39807371613.8 52277145130.4 52277145130.4 34427847204.5 31423502542.7 33479221305.6 34739522669.9 36365034568.7 32669875244.4 33830290433.9 34900327730.7 35881330689.6 37616669165.8 39128384862.9 39807371613.8 41047639335.4 54881502066.6 54881502066.6 38368178628.9 35667754019.4 38575117821.7 40642550602.6 43136510016.0 39311643771.7 41220913073.9 43029289611.5 44752592658.6 47959590556.3 50891097845.0 52277145130.4 54881502066.6 99326914963.0 99326914963.0 38368178628.9 35667754019.4 38575117821.7 40642550602.6 43136510016.0 39311643771.7 41220913073.9 43029289611.5 44752592658.6 47959590556.3 50891097845.0 52277145130.4 54881502066.6 99326914963.0 99326914963.0
fix             p3 all property/global coefficientRollingFriction peratomtypepair 15 250000000.0 250000000.0 250000000.0 250000000.0 250000000.0 250000000.0 250000000.0 250000000.0 250000000.0 250000000.0 250000000.0 250000000.0 250000000.0 0.95 0.95 250000000.0 250000000.0 250000000.0 250000000.0 250000000.0 250000000.0 250000000.0 250000000.0 250000000.0 250000000.0 250000000.0 250000000.0 250000000.0 0.95 0.95 250000000.0 250000000.0 250000000.0 250000000.0 250000000.0 250000000.0 250000000.0 250000000.0 250000000.0 250000000.0 250000000.0 250000000.0 250000000.0 0.95 0.95 250000000.0 250000000.0 250000000.0 250000000.0 250000000.0 250000000.0 250000000.0 250000000.0 250000000.0 250000000.0 250000000.0 250000000.0 250000000.0 0.95 0.95 250000000.0 250000000.0 250000000.0 250000000.0 250000000.0 250000000.0 250000000.0 250000000.0 250000000.0 250000000.0 250000000.0 250000000.0 250000000.0 0.95 0.95 250000000.0 250000000.0 250000000.0 250000000.0 250000000.0 250000000.0 250000000.0 250000000.0 250000000.0 250000000.0 250000000.0 250000000.0 250000000.0 0.95 0.95 250000000.0 250000000.0 250000000.0 250000000.0 250000000.0 250000000.0 250000000.0 250000000.0 250000000.0 250000000.0 250000000.0 250000000.0 250000000.0 0.95 0.95 250000000.0 250000000.0 250000000.0 250000000.0 250000000.0 250000000.0 250000000.0 250000000.0 250000000.0 250000000.0 250000000.0 250000000.0 250000000.0 0.95 0.95 250000000.0 250000000.0 250000000.0 250000000.0 250000000.0 250000000.0 250000000.0 250000000.0 250000000.0 250000000.0 250000000.0 250000000.0 250000000.0 0.95 0.95 250000000.0 250000000.0 250000000.0 250000000.0 250000000.0 250000000.0 250000000.0 250000000.0 250000000.0 250000000.0 250000000.0 250000000.0 250000000.0 0.95 0.95 250000000.0 250000000.0 250000000.0 250000000.0 250000000.0 250000000.0 250000000.0 250000000.0 250000000.0 250000000.0 250000000.0 250000000.0 250000000.0 0.95 0.95 250000000.0 250000000.0 250000000.0 250000000.0 250000000.0 250000000.0 250000000.0 250000000.0 250000000.0 250000000.0 250000000.0 250000000.0 250000000.0 0.95 0.95 250000000.0 250000000.0 250000000.0 250000000.0 250000000.0 250000000.0 250000000.0 250000000.0 250000000.0 250000000.0 250000000.0 250000000.0 250000000.0 0.95 0.95 0.95 0.95 0.95 0.95 0.95 0.95 0.95 0.95 0.95 0.95 0.95 0.95 0.95 0.95 0.95 0.95 0.95 0.95 0.95 0.95 0.95 0.95 0.95 0.95 0.95 0.95 0.95 0.95 0.95 0.95
fix             p4 all property/global coefficientFriction peratomtypepair 15 650000000.0 650000000.0 650000000.0 650000000.0 650000000.0 650000000.0 650000000.0 650000000.0 650000000.0 650000000.0 650000000.0 650000000.0 650000000.0 0.2 0.2 650000000.0 650000000.0 650000000.0 650000000.0 650000000.0 650000000.0 650000000.0 650000000.0 650000000.0 650000000.0 650000000.0 650000000.0 650000000.0 0.2 0.2 650000000.0 650000000.0 650000000.0 650000000.0 650000000.0 650000000.0 650000000.0 650000000.0 650000000.0 650000000.0 650000000.0 650000000.0 650000000.0 0.2 0.2 650000000.0 650000000.0 650000000.0 650000000.0 650000000.0 650000000.0 650000000.0 650000000.0 650000000.0 650000000.0 650000000.0 650000000.0 650000000.0 0.2 0.2 650000000.0 650000000.0 650000000.0 650000000.0 650000000.0 650000000.0 650000000.0 650000000.0 650000000.0 650000000.0 650000000.0 650000000.0 650000000.0 0.2 0.2 650000000.0 650000000.0 650000000.0 650000000.0 650000000.0 650000000.0 650000000.0 650000000.0 650000000.0 650000000.0 650000000.0 650000000.0 650000000.0 0.2 0.2 650000000.0 650000000.0 650000000.0 650000000.0 650000000.0 650000000.0 650000000.0 650000000.0 650000000.0 650000000.0 650000000.0 650000000.0 650000000.0 0.2 0.2 650000000.0 650000000.0 650000000.0 650000000.0 650000000.0 650000000.0 650000000.0 650000000.0 650000000.0 650000000.0 650000000.0 650000000.0 650000000.0 0.2 0.2 650000000.0 650000000.0 650000000.0 650000000.0 650000000.0 650000000.0 650000000.0 650000000.0 650000000.0 650000000.0 650000000.0 650000000.0 650000000.0 0.2 0.2 650000000.0 650000000.0 650000000.0 650000000.0 650000000.0 650000000.0 650000000.0 650000000.0 650000000.0 650000000.0 650000000.0 650000000.0 650000000.0 0.2 0.2 650000000.0 650000000.0 650000000.0 650000000.0 650000000.0 650000000.0 650000000.0 650000000.0 650000000.0 650000000.0 650000000.0 650000000.0 650000000.0 0.2 0.2 650000000.0 650000000.0 650000000.0 650000000.0 650000000.0 650000000.0 650000000.0 650000000.0 650000000.0 650000000.0 650000000.0 650000000.0 650000000.0 0.2 0.2 650000000.0 650000000.0 650000000.0 650000000.0 650000000.0 650000000.0 650000000.0 650000000.0 650000000.0 650000000.0 650000000.0 650000000.0 650000000.0 0.2 0.2 0.2 0.2 0.2 0.2 0.2 0.2 0.2 0.2 0.2 0.2 0.2 0.2 0.2 0.2 0.2 0.2 0.2 0.2 0.2 0.2 0.2 0.2 0.2 0.2 0.2 0.2 0.2 0.2 0.2 0.2
fix             p5 all property/global gamman peratomtypepair 15 5.0e+06 5.0e+06 5.0e+06 5.0e+06 5.0e+06 5.0e+06 5.0e+06 5.0e+06 5.0e+06 5.0e+06 5.0e+06 5.0e+06 5.0e+06 5.0e+06 5.0e+06 5.0e+06 5.0e+06 5.0e+06 5.0e+06 5.0e+06 5.0e+06 5.0e+06 5.0e+06 5.0e+06 5.0e+06 5.0e+06 5.0e+06 5.0e+06 5.0e+06 5.0e+06 5.0e+06 5.0e+06 5.0e+06 5.0e+06 5.0e+06 5.0e+06 5.0e+06 5.0e+06 5.0e+06 5.0e+06 5.0e+06 5.0e+06 5.0e+06 5.0e+06 5.0e+06 5.0e+06 5.0e+06 5.0e+06 5.0e+06 5.0e+06 5.0e+06 5.0e+06 5.0e+06 5.0e+06 5.0e+06 5.0e+06 5.0e+06 5.0e+06 5.0e+06 5.0e+06 5.0e+06 5.0e+06 5.0e+06 5.0e+06 5.0e+06 5.0e+06 5.0e+06 5.0e+06 5.0e+06 5.0e+06 5.0e+06 5.0e+06 5.0e+06 5.0e+06 5.0e+06 5.0e+06 5.0e+06 5.0e+06 5.0e+06 5.0e+06 5.0e+06 5.0e+06 5.0e+06 5.0e+06 5.0e+06 5.0e+06 5.0e+06 5.0e+06 5.0e+06 5.0e+06 5.0e+06 5.0e+06 5.0e+06 5.0e+06 5.0e+06 5.0e+06 5.0e+06 5.0e+06 5.0e+06 5.0e+06 5.0e+06 5.0e+06 5.0e+06 5.0e+06 5.0e+06 5.0e+06 5.0e+06 5.0e+06 5.0e+06 5.0e+06 5.0e+06 5.0e+06 5.0e+06 5.0e+06 5.0e+06 5.0e+06 5.0e+06 5.0e+06 5.0e+06 5.0e+06 5.0e+06 5.0e+06 5.0e+06 5.0e+06 5.0e+06 5.0e+06 5.0e+06 5.0e+06 5.0e+06 5.0e+06 5.0e+06 5.0e+06 5.0e+06 5.0e+06 5.0e+06 5.0e+06 5.0e+06 5.0e+06 5.0e+06 5.0e+06 5.0e+06 5.0e+06 5.0e+06 5.0e+06 5.0e+06 5.0e+06 5.0e+06 5.0e+06 5.0e+06 5.0e+06 5.0e+06 5.0e+06 5.0e+06 5.0e+06 5.0e+06 5.0e+06 5.0e+06 5.0e+06 5.0e+06 5.0e+06 5.0e+06 5.0e+06 5.0e+06 5.0e+06 5.0e+06 5.0e+06 5.0e+06 5.0e+06 5.0e+06 5.0e+06 5.0e+06 5.0e+06 5.0e+06 5.0e+06 5.0e+06 5.0e+06 5.0e+06 5.0e+06 5.0e+06 5.0e+06 5.0e+06 5.0e+06 5.0e+06 5.0e+06 5.0e+06 5.0e+06 5.0e+06 5.0e+06 5.0e+06 5.0e+06 5.0e+06 5.0e+06 5.0e+06 5.0e+06 5.0e+06 5.0e+06 5.0e+06 5.0e+06 5.0e+06 5.0e+06 5.0e+06 5.0e+06 5.0e+06 5.0e+06 5.0e+06 5.0e+06 5.0e+06 5.0e+06 5.0e+06 5.0e+06 5.0e+06 5.0e+06 5.0e+06 5.0e+06 5.0e+06 5.0e+06 5.0e+06 5.0e+06 5.0e+06 5.0e+06 5.0e+06 5.0e+06 5.0e+06 5.0e+06 5.0e+06
fix             p6 all property/global gammat peratomtypepair 15 0.0e+00 0.0e+00 0.0e+00 0.0e+00 0.0e+00 0.0e+00 0.0e+00 0.0e+00 0.0e+00 0.0e+00 0.0e+00 0.0e+00 0.0e+00 0.0e+00 0.0e+00 0.0e+00 0.0e+00 0.0e+00 0.0e+00 0.0e+00 0.0e+00 0.0e+00 0.0e+00 0.0e+00 0.0e+00 0.0e+00 0.0e+00 0.0e+00 0.0e+00 0.0e+00 0.0e+00 0.0e+00 0.0e+00 0.0e+00 0.0e+00 0.0e+00 0.0e+00 0.0e+00 0.0e+00 0.0e+00 0.0e+00 0.0e+00 0.0e+00 0.0e+00 0.0e+00 0.0e+00 0.0e+00 0.0e+00 0.0e+00 0.0e+00 0.0e+00 0.0e+00 0.0e+00 0.0e+00 0.0e+00 0.0e+00 0.0e+00 0.0e+00 0.0e+00 0.0e+00 0.0e+00 0.0e+00 0.0e+00 0.0e+00 0.0e+00 0.0e+00 0.0e+00 0.0e+00 0.0e+00 0.0e+00 0.0e+00 0.0e+00 0.0e+00 0.0e+00 0.0e+00 0.0e+00 0.0e+00 0.0e+00 0.0e+00 0.0e+00 0.0e+00 0.0e+00 0.0e+00 0.0e+00 0.0e+00 0.0e+00 0.0e+00 0.0e+00 0.0e+00 0.0e+00 0.0e+00 0.0e+00 0.0e+00 0.0e+00 0.0e+00 0.0e+00 0.0e+00 0.0e+00 0.0e+00 0.0e+00 0.0e+00 0.0e+00 0.0e+00 0.0e+00 0.0e+00 0.0e+00 0.0e+00 0.0e+00 0.0e+00 0.0e+00 0.0e+00 0.0e+00 0.0e+00 0.0e+00 0.0e+00 0.0e+00 0.0e+00 0.0e+00 0.0e+00 0.0e+00 0.0e+00 0.0e+00 0.0e+00 0.0e+00 0.0e+00 0.0e+00 0.0e+00 0.0e+00 0.0e+00 0.0e+00 0.0e+00 0.0e+00 0.0e+00 0.0e+00 0.0e+00 0.0e+00 0.0e+00 0.0e+00 0.0e+00 0.0e+00 0.0e+00 0.0e+00 0.0e+00 0.0e+00 0.0e+00 0.0e+00 0.0e+00 0.0e+00 0.0e+00 0.0e+00 0.0e+00 0.0e+00 0.0e+00 0.0e+00 0.0e+00 0.0e+00 0.0e+00 0.0e+00 0.0e+00 0.0e+00 0.0e+00 0.0e+00 0.0e+00 0.0e+00 0.0e+00 0.0e+00 0.0e+00 0.0e+00 0.0e+00 0.0e+00 0.0e+00 0.0e+00 0.0e+00 0.0e+00 0.0e+00 0.0e+00 0.0e+00 0.0e+00 0.0e+00 0.0e+00 0.0e+00 0.0e+00 0.0e+00 0.0e+00 0.0e+00 0.0e+00 0.0e+00 0.0e+00 0.0e+00 0.0e+00 0.0e+00 0.0e+00 0.0e+00 0.0e+00 0.0e+00 0.0e+00 0.0e+00 0.0e+00 0.0e+00 0.0e+00 0.0e+00 0.0e+00 0.0e+00 0.0e+00 0.0e+00 0.0e+00 0.0e+00 0.0e+00 0.0e+00 0.0e+00 0.0e+00 0.0e+00 0.0e+00 0.0e+00 0.0e+00 0.0e+00 0.0e+00 0.0e+00 0.0e+00 0.0e+00 0.0e+00 0.0e+00 0.0e+00 0.0e+00 0.0e+00
fix             p7 all property/global youngsModulus peratomtype   ${youngWall} ${youngWall} ${youngWall} ${youngWall} ${youngWall} ${youngWall} ${youngWall} ${youngWall} ${youngWall} ${youngWall} ${youngWall} ${youngWall} ${youngWall} ${youngWall} ${youngWall}
fix             p7 all property/global youngsModulus peratomtype   56000000000 ${youngWall} ${youngWall} ${youngWall} ${youngWall} ${youngWall} ${youngWall} ${youngWall} ${youngWall} ${youngWall} ${youngWall} ${youngWall} ${youngWall} ${youngWall} ${youngWall}
fix             p7 all property/global youngsModulus peratomtype   56000000000 56000000000 ${youngWall} ${youngWall} ${youngWall} ${youngWall} ${youngWall} ${youngWall} ${youngWall} ${youngWall} ${youngWall} ${youngWall} ${youngWall} ${youngWall} ${youngWall}
fix             p7 all property/global youngsModulus peratomtype   56000000000 56000000000 56000000000 ${youngWall} ${youngWall} ${youngWall} ${youngWall} ${youngWall} ${youngWall} ${youngWall} ${youngWall} ${youngWall} ${youngWall} ${youngWall} ${youngWall}
fix             p7 all property/global youngsModulus peratomtype   56000000000 56000000000 56000000000 56000000000 ${youngWall} ${youngWall} ${youngWall} ${youngWall} ${youngWall} ${youngWall} ${youngWall} ${youngWall} ${youngWall} ${youngWall} ${youngWall}
fix             p7 all property/global youngsModulus peratomtype   56000000000 56000000000 56000000000 56000000000 56000000000 ${youngWall} ${youngWall} ${youngWall} ${youngWall} ${youngWall} ${youngWall} ${youngWall} ${youngWall} ${youngWall} ${youngWall}
fix             p7 all property/global youngsModulus peratomtype   56000000000 56000000000 56000000000 56000000000 56000000000 56000000000 ${youngWall} ${youngWall} ${youngWall} ${youngWall} ${youngWall} ${youngWall} ${youngWall} ${youngWall} ${youngWall}
fix             p7 all property/global youngsModulus peratomtype   56000000000 56000000000 56000000000 56000000000 56000000000 56000000000 56000000000 ${youngWall} ${youngWall} ${youngWall} ${youngWall} ${youngWall} ${youngWall} ${youngWall} ${youngWall}
fix             p7 all property/global youngsModulus peratomtype   56000000000 56000000000 56000000000 56000000000 56000000000 56000000000 56000000000 56000000000 ${youngWall} ${youngWall} ${youngWall} ${youngWall} ${youngWall} ${youngWall} ${youngWall}
fix             p7 all property/global youngsModulus peratomtype   56000000000 56000000000 56000000000 56000000000 56000000000 56000000000 56000000000 56000000000 56000000000 ${youngWall} ${youngWall} ${youngWall} ${youngWall} ${youngWall} ${youngWall}
fix             p7 all property/global youngsModulus peratomtype   56000000000 56000000000 56000000000 56000000000 56000000000 56000000000 56000000000 56000000000 56000000000 56000000000 ${youngWall} ${youngWall} ${youngWall} ${youngWall} ${youngWall}
fix             p7 all property/global youngsModulus peratomtype   56000000000 56000000000 56000000000 56000000000 56000000000 56000000000 56000000000 56000000000 56000000000 56000000000 56000000000 ${youngWall} ${youngWall} ${youngWall} ${youngWall}
fix             p7 all property/global youngsModulus peratomtype   56000000000 56000000000 56000000000 56000000000 56000000000 56000000000 56000000000 56000000000 56000000000 56000000000 56000000000 56000000000 ${youngWall} ${youngWall} ${youngWall}
fix             p7 all property/global youngsModulus peratomtype   56000000000 56000000000 56000000000 56000000000 56000000000 56000000000 56000000000 56000000000 56000000000 56000000000 56000000000 56000000000 56000000000 ${youngWall} ${youngWall}
fix             p7 all property/global youngsModulus peratomtype   56000000000 56000000000 56000000000 56000000000 56000000000 56000000000 56000000000 56000000000 56000000000 56000000000 56000000000 56000000000 56000000000 56000000000 ${youngWall}
fix             p7 all property/global youngsModulus peratomtype   56000000000 56000000000 56000000000 56000000000 56000000000 56000000000 56000000000 56000000000 56000000000 56000000000 56000000000 56000000000 56000000000 56000000000 56000000000
fix             p8 all property/global poissonsRatio peratomtype   0.50 0.50 0.50 0.50 0.50 0.50 0.50 0.50 0.50 0.50 0.50 0.50 0.50 0.50 0.50
fix             p9 all property/global coefficientRestitution peratomtypepair 15 ${cRest} ${cRest} ${cRest} ${cRest} ${cRest} ${cRest} ${cRest} ${cRest} ${cRest} ${cRest} ${cRest} ${cRest} ${cRest} ${cRest} ${cRest} ${cRest} ${cRest} ${cRest} ${cRest} ${cRest} ${cRest} ${cRest} ${cRest} ${cRest} ${cRest} ${cRest} ${cRest} ${cRest} ${cRest} ${cRest} ${cRest} ${cRest} ${cRest} ${cRest} ${cRest} ${cRest} ${cRest} ${cRest} ${cRest} ${cRest} ${cRest} ${cRest} ${cRest} ${cRest} ${cRest} ${cRest} ${cRest} ${cRest} ${cRest} ${cRest} ${cRest} ${cRest} ${cRest} ${cRest} ${cRest} ${cRest} ${cRest} ${cRest} ${cRest} ${cRest} ${cRest} ${cRest} ${cRest} ${cRest} ${cRest} ${cRest} ${cRest} ${cRest} ${cRest} ${cRest} ${cRest} ${cRest} ${cRest} ${cRest} ${cRest} ${cRest} ${cRest} ${cRest} ${cRest} ${cRest} ${cRest} ${cRest} ${cRest} ${cRest} ${cRest} ${cRest} ${cRest} ${cRest} ${cRest} ${cRest} ${cRest} ${cRest} ${cRest} ${cRest} ${cRest} ${cRest} ${cRest} ${cRest} ${cRest} ${cRest} ${cRest} ${cRest} ${cRest} ${cRest} ${cRest} ${cRest} ${cRest} ${cRest} ${cRest} ${cRest} ${cRest} ${cRest} ${cRest} ${cRest} ${cRest} ${cRest} ${cRest} ${cRest} ${cRest} ${cRest} ${cRest} ${cRest} ${cRest} ${cRest} ${cRest} ${cRest} ${cRest} ${cRest} ${cRest} ${cRest} ${cRest} ${cRest} ${cRest} ${cRest} ${cRest} ${cRest} ${cRest} ${cRest} ${cRest} ${cRest} ${cRest} ${cRest} ${cRest} ${cRest} ${cRest} ${cRest} ${cRest} ${cRest} ${cRest} ${cRest} ${cRest} ${cRest} ${cRest} ${cRest} ${cRest} ${cRest} ${cRest} ${cRest} ${cRest} ${cRest} ${cRest} ${cRest} ${cRest} ${cRest} ${cRest} ${cRest} ${cRest} ${cRest} ${cRest} ${cRest} ${cRest} ${cRest} ${cRest} ${cRest} ${cRest} ${cRest} ${cRest} ${cRest} ${cRest} ${cRest} ${cRest} ${cRest} ${cRest} ${cRest} ${cRest} ${cRest} ${cRest} ${cRest} ${cRest} ${cRest} ${cRest} ${cRest} ${cRest} ${cRest} ${cRest} ${cRest} ${cRest} ${cRest} ${cRest} ${cRest} ${cRest} ${cRest} ${cRest} ${cRest} ${cRest} ${cRest} ${cRest} ${cRest} ${cRest} ${cRest} ${cRest} ${cRest} ${cRest} ${cRest} ${cRest} ${cRest} ${cRest} ${cRest} ${cRest} ${cRest} ${cRest} ${cRest} ${cRest} ${cRest} ${cRest}
fix             p9 all property/global coefficientRestitution peratomtypepair 15 0.1 ${cRest} ${cRest} ${cRest} ${cRest} ${cRest} ${cRest} ${cRest} ${cRest} ${cRest} ${cRest} ${cRest} ${cRest} ${cRest} ${cRest} ${cRest} ${cRest} ${cRest} ${cRest} ${cRest} ${cRest} ${cRest} ${cRest} ${cRest} ${cRest} ${cRest} ${cRest} ${cRest} ${cRest} ${cRest} ${cRest} ${cRest} ${cRest} ${cRest} ${cRest} ${cRest} ${cRest} ${cRest} ${cRest} ${cRest} ${cRest} ${cRest} ${cRest} ${cRest} ${cRest} ${cRest} ${cRest} ${cRest} ${cRest} ${cRest} ${cRest} ${cRest} ${cRest} ${cRest} ${cRest} ${cRest} ${cRest} ${cRest} ${cRest} ${cRest} ${cRest} ${cRest} ${cRest} ${cRest} ${cRest} ${cRest} ${cRest} ${cRest} ${cRest} ${cRest} ${cRest} ${cRest} ${cRest} ${cRest} ${cRest} ${cRest} ${cRest} ${cRest} ${cRest} ${cRest} ${cRest} ${cRest} ${cRest} ${cRest} ${cRest} ${cRest} ${cRest} ${cRest} ${cRest} ${cRest} ${cRest} ${cRest} ${cRest} ${cRest} ${cRest} ${cRest} ${cRest} ${cRest} ${cRest} ${cRest} ${cRest} ${cRest} ${cRest} ${cRest} ${cRest} ${cRest} ${cRest} ${cRest} ${cRest} ${cRest} ${cRest} ${cRest} ${cRest} ${cRest} ${cRest} ${cRest} ${cRest} ${cRest} ${cRest} ${cRest} ${cRest} ${cRest} ${cRest} ${cRest} ${cRest} ${cRest} ${cRest} ${cRest} ${cRest} ${cRest} ${cRest} ${cRest} ${cRest} ${cRest} ${cRest} ${cRest} ${cRest} ${cRest} ${cRest} ${cRest} ${cRest} ${cRest} ${cRest} ${cRest} ${cRest} ${cRest} ${cRest} ${cRest} ${cRest} ${cRest} ${cRest} ${cRest} ${cRest} ${cRest} ${cRest} ${cRest} ${cRest} ${cRest} ${cRest} ${cRest} ${cRest} ${cRest} ${cRest} ${cRest} ${cRest} ${cRest} ${cRest} ${cRest} ${cRest} ${cRest} ${cRest} ${cRest} ${cRest} ${cRest} ${cRest} ${cRest} ${cRest} ${cRest} ${cRest} ${cRest} ${cRest} ${cRest} ${cRest} ${cRest} ${cRest} ${cRest} ${cRest} ${cRest} ${cRest} ${cRest} ${cRest} ${cRest} ${cRest} ${cRest} ${cRest} ${cRest} ${cRest} ${cRest} ${cRest} ${cRest} ${cRest} ${cRest} ${cRest} ${cRest} ${cRest} ${cRest} ${cRest} ${cRest} ${cRest} ${cRest} ${cRest} ${cRest} ${cRest} ${cRest} ${cRest} ${cRest} ${cRest} ${cRest} ${cRest} ${cRest} ${cRest} ${cRest} ${cRest} ${cRest} ${cRest}
fix             p9 all property/global coefficientRestitution peratomtypepair 15 0.1 0.1 ${cRest} ${cRest} ${cRest} ${cRest} ${cRest} ${cRest} ${cRest} ${cRest} ${cRest} ${cRest} ${cRest} ${cRest} ${cRest} ${cRest} ${cRest} ${cRest} ${cRest} ${cRest} ${cRest} ${cRest} ${cRest} ${cRest} ${cRest} ${cRest} ${cRest} ${cRest} ${cRest} ${cRest} ${cRest} ${cRest} ${cRest} ${cRest} ${cRest} ${cRest} ${cRest} ${cRest} ${cRest} ${cRest} ${cRest} ${cRest} ${cRest} ${cRest} ${cRest} ${cRest} ${cRest} ${cRest} ${cRest} ${cRest} ${cRest} ${cRest} ${cRest} ${cRest} ${cRest} ${cRest} ${cRest} ${cRest} ${cRest} ${cRest} ${cRest} ${cRest} ${cRest} ${cRest} ${cRest} ${cRest} ${cRest} ${cRest} ${cRest} ${cRest} ${cRest} ${cRest} ${cRest} ${cRest} ${cRest} ${cRest} ${cRest} ${cRest} ${cRest} ${cRest} ${cRest} ${cRest} ${cRest} ${cRest} ${cRest} ${cRest} ${cRest} ${cRest} ${cRest} ${cRest} ${cRest} ${cRest} ${cRest} ${cRest} ${cRest} ${cRest} ${cRest} ${cRest} ${cRest} ${cRest} ${cRest} ${cRest} ${cRest} ${cRest} ${cRest} ${cRest} ${cRest} ${cRest} ${cRest} ${cRest} ${cRest} ${cRest} ${cRest} ${cRest} ${cRest} ${cRest} ${cRest} ${cRest} ${cRest} ${cRest} ${cRest} ${cRest} ${cRest} ${cRest} ${cRest} ${cRest} ${cRest} ${cRest} ${cRest} ${cRest} ${cRest} ${cRest} ${cRest} ${cRest} ${cRest} ${cRest} ${cRest} ${cRest} ${cRest} ${cRest} ${cRest} ${cRest} ${cRest} ${cRest} ${cRest} ${cRest} ${cRest} ${cRest} ${cRest} ${cRest} ${cRest} ${cRest} ${cRest} ${cRest} ${cRest} ${cRest} ${cRest} ${cRest} ${cRest} ${cRest} ${cRest} ${cRest} ${cRest} ${cRest} ${cRest} ${cRest} ${cRest} ${cRest} ${cRest} ${cRest} ${cRest} ${cRest} ${cRest} ${cRest} ${cRest} ${cRest} ${cRest} ${cRest} ${cRest} ${cRest} ${cRest} ${cRest} ${cRest} ${cRest} ${cRest} ${cRest} ${cRest} ${cRest} ${cRest} ${cRest} ${cRest} ${cRest} ${cRest} ${cRest} ${cRest} ${cRest} ${cRest} ${cRest} ${cRest} ${cRest} ${cRest} ${cRest} ${cRest} ${cRest} ${cRest} ${cRest} ${cRest} ${cRest} ${cRest} ${cRest} ${cRest} ${cRest} ${cRest} ${cRest} ${cRest} ${cRest} ${cRest} ${cRest} ${cRest} ${cRest} ${cRest} ${cRest} ${cRest} ${cRest} ${cRest}
fix             p9 all property/global coefficientRestitution peratomtypepair 15 0.1 0.1 0.1 ${cRest} ${cRest} ${cRest} ${cRest} ${cRest} ${cRest} ${cRest} ${cRest} ${cRest} ${cRest} ${cRest} ${cRest} ${cRest} ${cRest} ${cRest} ${cRest} ${cRest} ${cRest} ${cRest} ${cRest} ${cRest} ${cRest} ${cRest} ${cRest} ${cRest} ${cRest} ${cRest} ${cRest} ${cRest} ${cRest} ${cRest} ${cRest} ${cRest} ${cRest} ${cRest} ${cRest} ${cRest} ${cRest} ${cRest} ${cRest} ${cRest} ${cRest} ${cRest} ${cRest} ${cRest} ${cRest} ${cRest} ${cRest} ${cRest} ${cRest} ${cRest} ${cRest} ${cRest} ${cRest} ${cRest} ${cRest} ${cRest} ${cRest} ${cRest} ${cRest} ${cRest} ${cRest} ${cRest} ${cRest} ${cRest} ${cRest} ${cRest} ${cRest} ${cRest} ${cRest} ${cRest} ${cRest} ${cRest} ${cRest} ${cRest} ${cRest} ${cRest} ${cRest} ${cRest} ${cRest} ${cRest} ${cRest} ${cRest} ${cRest} ${cRest} ${cRest} ${cRest} ${cRest} ${cRest} ${cRest} ${cRest} ${cRest} ${cRest} ${cRest} ${cRest} ${cRest} ${cRest} ${cRest} ${cRest} ${cRest} ${cRest} ${cRest} ${cRest} ${cRest} ${cRest} ${cRest} ${cRest} ${cRest} ${cRest} ${cRest} ${cRest} ${cRest} ${cRest} ${cRest} ${cRest} ${cRest} ${cRest} ${cRest} ${cRest} ${cRest} ${cRest} ${cRest} ${cRest} ${cRest} ${cRest} ${cRest} ${cRest} ${cRest} ${cRest} ${cRest} ${cRest} ${cRest} ${cRest} ${cRest} ${cRest} ${cRest} ${cRest} ${cRest} ${cRest} ${cRest} ${cRest} ${cRest} ${cRest} ${cRest} ${cRest} ${cRest} ${cRest} ${cRest} ${cRest} ${cRest} ${cRest} ${cRest} ${cRest} ${cRest} ${cRest} ${cRest} ${cRest} ${cRest} ${cRest} ${cRest} ${cRest} ${cRest} ${cRest} ${cRest} ${cRest} ${cRest} ${cRest} ${cRest} ${cRest} ${cRest} ${cRest} ${cRest} ${cRest} ${cRest} ${cRest} ${cRest} ${cRest} ${cRest} ${cRest} ${cRest} ${cRest} ${cRest} ${cRest} ${cRest} ${cRest} ${cRest} ${cRest} ${cRest} ${cRest} ${cRest} ${cRest} ${cRest} ${cRest} ${cRest} ${cRest} ${cRest} ${cRest} ${cRest} ${cRest} ${cRest} ${cRest} ${cRest} ${cRest} ${cRest} ${cRest} ${cRest} ${cRest} ${cRest} ${cRest} ${cRest} ${cRest} ${cRest} ${cRest} ${cRest} ${cRest} ${cRest} ${cRest} ${cRest} ${cRest} ${cRest} ${cRest} ${cRest}
fix             p9 all property/global coefficientRestitution peratomtypepair 15 0.1 0.1 0.1 0.1 ${cRest} ${cRest} ${cRest} ${cRest} ${cRest} ${cRest} ${cRest} ${cRest} ${cRest} ${cRest} ${cRest} ${cRest} ${cRest} ${cRest} ${cRest} ${cRest} ${cRest} ${cRest} ${cRest} ${cRest} ${cRest} ${cRest} ${cRest} ${cRest} ${cRest} ${cRest} ${cRest} ${cRest} ${cRest} ${cRest} ${cRest} ${cRest} ${cRest} ${cRest} ${cRest} ${cRest} ${cRest} ${cRest} ${cRest} ${cRest} ${cRest} ${cRest} ${cRest} ${cRest} ${cRest} ${cRest} ${cRest} ${cRest} ${cRest} ${cRest} ${cRest} ${cRest} ${cRest} ${cRest} ${cRest} ${cRest} ${cRest} ${cRest} ${cRest} ${cRest} ${cRest} ${cRest} ${cRest} ${cRest} ${cRest} ${cRest} ${cRest} ${cRest} ${cRest} ${cRest} ${cRest} ${cRest} ${cRest} ${cRest} ${cRest} ${cRest} ${cRest} ${cRest} ${cRest} ${cRest} ${cRest} ${cRest} ${cRest} ${cRest} ${cRest} ${cRest} ${cRest} ${cRest} ${cRest} ${cRest} ${cRest} ${cRest} ${cRest} ${cRest} ${cRest} ${cRest} ${cRest} ${cRest} ${cRest} ${cRest} ${cRest} ${cRest} ${cRest} ${cRest} ${cRest} ${cRest} ${cRest} ${cRest} ${cRest} ${cRest} ${cRest} ${cRest} ${cRest} ${cRest} ${cRest} ${cRest} ${cRest} ${cRest} ${cRest} ${cRest} ${cRest} ${cRest} ${cRest} ${cRest} ${cRest} ${cRest} ${cRest} ${cRest} ${cRest} ${cRest} ${cRest} ${cRest} ${cRest} ${cRest} ${cRest} ${cRest} ${cRest} ${cRest} ${cRest} ${cRest} ${cRest} ${cRest} ${cRest} ${cRest} ${cRest} ${cRest} ${cRest} ${cRest} ${cRest} ${cRest} ${cRest} ${cRest} ${cRest} ${cRest} ${cRest} ${cRest} ${cRest} ${cRest} ${cRest} ${cRest} ${cRest} ${cRest} ${cRest} ${cRest} ${cRest} ${cRest} ${cRest} ${cRest} ${cRest} ${cRest} ${cRest} ${cRest} ${cRest} ${cRest} ${cRest} ${cRest} ${cRest} ${cRest} ${cRest} ${cRest} ${cRest} ${cRest} ${cRest} ${cRest} ${cRest} ${cRest} ${cRest} ${cRest} ${cRest} ${cRest} ${cRest} ${cRest} ${cRest} ${cRest} ${cRest} ${cRest} ${cRest} ${cRest} ${cRest} ${cRest} ${cRest} ${cRest} ${cRest} ${cRest} ${cRest} ${cRest} ${cRest} ${cRest} ${cRest} ${cRest} ${cRest} ${cRest} ${cRest} ${cRest} ${cRest} ${cRest} ${cRest} ${cRest} ${cRest} ${cRest} ${cRest}
fix             p9 all property/global coefficientRestitution peratomtypepair 15 0.1 0.1 0.1 0.1 0.1 ${cRest} ${cRest} ${cRest} ${cRest} ${cRest} ${cRest} ${cRest} ${cRest} ${cRest} ${cRest} ${cRest} ${cRest} ${cRest} ${cRest} ${cRest} ${cRest} ${cRest} ${cRest} ${cRest} ${cRest} ${cRest} ${cRest} ${cRest} ${cRest} ${cRest} ${cRest} ${cRest} ${cRest} ${cRest} ${cRest} ${cRest} ${cRest} ${cRest} ${cRest} ${cRest} ${cRest} ${cRest} ${cRest} ${cRest} ${cRest} ${cRest} ${cRest} ${cRest} ${cRest} ${cRest} ${cRest} ${cRest} ${cRest} ${cRest} ${cRest} ${cRest} ${cRest} ${cRest} ${cRest} ${cRest} ${cRest} ${cRest} ${cRest} ${cRest} ${cRest} ${cRest} ${cRest} ${cRest} ${cRest} ${cRest} ${cRest} ${cRest} ${cRest} ${cRest} ${cRest} ${cRest} ${cRest} ${cRest} ${cRest} ${cRest} ${cRest} ${cRest} ${cRest} ${cRest} ${cRest} ${cRest} ${cRest} ${cRest} ${cRest} ${cRest} ${cRest} ${cRest} ${cRest} ${cRest} ${cRest} ${cRest} ${cRest} ${cRest} ${cRest} ${cRest} ${cRest} ${cRest} ${cRest} ${cRest} ${cRest} ${cRest} ${cRest} ${cRest} ${cRest} ${cRest} ${cRest} ${cRest} ${cRest} ${cRest} ${cRest} ${cRest} ${cRest} ${cRest} ${cRest} ${cRest} ${cRest} ${cRest} ${cRest} ${cRest} ${cRest} ${cRest} ${cRest} ${cRest} ${cRest} ${cRest} ${cRest} ${cRest} ${cRest} ${cRest} ${cRest} ${cRest} ${cRest} ${cRest} ${cRest} ${cRest} ${cRest} ${cRest} ${cRest} ${cRest} ${cRest} ${cRest} ${cRest} ${cRest} ${cRest} ${cRest} ${cRest} ${cRest} ${cRest} ${cRest} ${cRest} ${cRest} ${cRest} ${cRest} ${cRest} ${cRest} ${cRest} ${cRest} ${cRest} ${cRest} ${cRest} ${cRest} ${cRest} ${cRest} ${cRest} ${cRest} ${cRest} ${cRest} ${cRest} ${cRest} ${cRest} ${cRest} ${cRest} ${cRest} ${cRest} ${cRest} ${cRest} ${cRest} ${cRest} ${cRest} ${cRest} ${cRest} ${cRest} ${cRest} ${cRest} ${cRest} ${cRest} ${cRest} ${cRest} ${cRest} ${cRest} ${cRest} ${cRest} ${cRest} ${cRest} ${cRest} ${cRest} ${cRest} ${cRest} ${cRest} ${cRest} ${cRest} ${cRest} ${cRest} ${cRest} ${cRest} ${cRest} ${cRest} ${cRest} ${cRest} ${cRest} ${cRest} ${cRest} ${cRest} ${cRest} ${cRest} ${cRest} ${cRest} ${cRest} ${cRest} ${cRest}
fix             p9 all property/global coefficientRestitution peratomtypepair 15 0.1 0.1 0.1 0.1 0.1 0.1 ${cRest} ${cRest} ${cRest} ${cRest} ${cRest} ${cRest} ${cRest} ${cRest} ${cRest} ${cRest} ${cRest} ${cRest} ${cRest} ${cRest} ${cRest} ${cRest} ${cRest} ${cRest} ${cRest} ${cRest} ${cRest} ${cRest} ${cRest} ${cRest} ${cRest} ${cRest} ${cRest} ${cRest} ${cRest} ${cRest} ${cRest} ${cRest} ${cRest} ${cRest} ${cRest} ${cRest} ${cRest} ${cRest} ${cRest} ${cRest} ${cRest} ${cRest} ${cRest} ${cRest} ${cRest} ${cRest} ${cRest} ${cRest} ${cRest} ${cRest} ${cRest} ${cRest} ${cRest} ${cRest} ${cRest} ${cRest} ${cRest} ${cRest} ${cRest} ${cRest} ${cRest} ${cRest} ${cRest} ${cRest} ${cRest} ${cRest} ${cRest} ${cRest} ${cRest} ${cRest} ${cRest} ${cRest} ${cRest} ${cRest} ${cRest} ${cRest} ${cRest} ${cRest} ${cRest} ${cRest} ${cRest} ${cRest} ${cRest} ${cRest} ${cRest} ${cRest} ${cRest} ${cRest} ${cRest} ${cRest} ${cRest} ${cRest} ${cRest} ${cRest} ${cRest} ${cRest} ${cRest} ${cRest} ${cRest} ${cRest} ${cRest} ${cRest} ${cRest} ${cRest} ${cRest} ${cRest} ${cRest} ${cRest} ${cRest} ${cRest} ${cRest} ${cRest} ${cRest} ${cRest} ${cRest} ${cRest} ${cRest} ${cRest} ${cRest} ${cRest} ${cRest} ${cRest} ${cRest} ${cRest} ${cRest} ${cRest} ${cRest} ${cRest} ${cRest} ${cRest} ${cRest} ${cRest} ${cRest} ${cRest} ${cRest} ${cRest} ${cRest} ${cRest} ${cRest} ${cRest} ${cRest} ${cRest} ${cRest} ${cRest} ${cRest} ${cRest} ${cRest} ${cRest} ${cRest} ${cRest} ${cRest} ${cRest} ${cRest} ${cRest} ${cRest} ${cRest} ${cRest} ${cRest} ${cRest} ${cRest} ${cRest} ${cRest} ${cRest} ${cRest} ${cRest} ${cRest} ${cRest} ${cRest} ${cRest} ${cRest} ${cRest} ${cRest} ${cRest} ${cRest} ${cRest} ${cRest} ${cRest} ${cRest} ${cRest} ${cRest} ${cRest} ${cRest} ${cRest} ${cRest} ${cRest} ${cRest} ${cRest} ${cRest} ${cRest} ${cRest} ${cRest} ${cRest} ${cRest} ${cRest} ${cRest} ${cRest} ${cRest} ${cRest} ${cRest} ${cRest} ${cRest} ${cRest} ${cRest} ${cRest} ${cRest} ${cRest} ${cRest} ${cRest} ${cRest} ${cRest} ${cRest} ${cRest} ${cRest} ${cRest} ${cRest} ${cRest} ${cRest} ${cRest} ${cRest}
fix             p9 all property/global coefficientRestitution peratomtypepair 15 0.1 0.1 0.1 0.1 0.1 0.1 0.1 ${cRest} ${cRest} ${cRest} ${cRest} ${cRest} ${cRest} ${cRest} ${cRest} ${cRest} ${cRest} ${cRest} ${cRest} ${cRest} ${cRest} ${cRest} ${cRest} ${cRest} ${cRest} ${cRest} ${cRest} ${cRest} ${cRest} ${cRest} ${cRest} ${cRest} ${cRest} ${cRest} ${cRest} ${cRest} ${cRest} ${cRest} ${cRest} ${cRest} ${cRest} ${cRest} ${cRest} ${cRest} ${cRest} ${cRest} ${cRest} ${cRest} ${cRest} ${cRest} ${cRest} ${cRest} ${cRest} ${cRest} ${cRest} ${cRest} ${cRest} ${cRest} ${cRest} ${cRest} ${cRest} ${cRest} ${cRest} ${cRest} ${cRest} ${cRest} ${cRest} ${cRest} ${cRest} ${cRest} ${cRest} ${cRest} ${cRest} ${cRest} ${cRest} ${cRest} ${cRest} ${cRest} ${cRest} ${cRest} ${cRest} ${cRest} ${cRest} ${cRest} ${cRest} ${cRest} ${cRest} ${cRest} ${cRest} ${cRest} ${cRest} ${cRest} ${cRest} ${cRest} ${cRest} ${cRest} ${cRest} ${cRest} ${cRest} ${cRest} ${cRest} ${cRest} ${cRest} ${cRest} ${cRest} ${cRest} ${cRest} ${cRest} ${cRest} ${cRest} ${cRest} ${cRest} ${cRest} ${cRest} ${cRest} ${cRest} ${cRest} ${cRest} ${cRest} ${cRest} ${cRest} ${cRest} ${cRest} ${cRest} ${cRest} ${cRest} ${cRest} ${cRest} ${cRest} ${cRest} ${cRest} ${cRest} ${cRest} ${cRest} ${cRest} ${cRest} ${cRest} ${cRest} ${cRest} ${cRest} ${cRest} ${cRest} ${cRest} ${cRest} ${cRest} ${cRest} ${cRest} ${cRest} ${cRest} ${cRest} ${cRest} ${cRest} ${cRest} ${cRest} ${cRest} ${cRest} ${cRest} ${cRest} ${cRest} ${cRest} ${cRest} ${cRest} ${cRest} ${cRest} ${cRest} ${cRest} ${cRest} ${cRest} ${cRest} ${cRest} ${cRest} ${cRest} ${cRest} ${cRest} ${cRest} ${cRest} ${cRest} ${cRest} ${cRest} ${cRest} ${cRest} ${cRest} ${cRest} ${cRest} ${cRest} ${cRest} ${cRest} ${cRest} ${cRest} ${cRest} ${cRest} ${cRest} ${cRest} ${cRest} ${cRest} ${cRest} ${cRest} ${cRest} ${cRest} ${cRest} ${cRest} ${cRest} ${cRest} ${cRest} ${cRest} ${cRest} ${cRest} ${cRest} ${cRest} ${cRest} ${cRest} ${cRest} ${cRest} ${cRest} ${cRest} ${cRest} ${cRest} ${cRest} ${cRest} ${cRest} ${cRest} ${cRest} ${cRest} ${cRest} ${cRest}
fix             p9 all property/global coefficientRestitution peratomtypepair 15 0.1 0.1 0.1 0.1 0.1 0.1 0.1 0.1 ${cRest} ${cRest} ${cRest} ${cRest} ${cRest} ${cRest} ${cRest} ${cRest} ${cRest} ${cRest} ${cRest} ${cRest} ${cRest} ${cRest} ${cRest} ${cRest} ${cRest} ${cRest} ${cRest} ${cRest} ${cRest} ${cRest} ${cRest} ${cRest} ${cRest} ${cRest} ${cRest} ${cRest} ${cRest} ${cRest} ${cRest} ${cRest} ${cRest} ${cRest} ${cRest} ${cRest} ${cRest} ${cRest} ${cRest} ${cRest} ${cRest} ${cRest} ${cRest} ${cRest} ${cRest} ${cRest} ${cRest} ${cRest} ${cRest} ${cRest} ${cRest} ${cRest} ${cRest} ${cRest} ${cRest} ${cRest} ${cRest} ${cRest} ${cRest} ${cRest} ${cRest} ${cRest} ${cRest} ${cRest} ${cRest} ${cRest} ${cRest} ${cRest} ${cRest} ${cRest} ${cRest} ${cRest} ${cRest} ${cRest} ${cRest} ${cRest} ${cRest} ${cRest} ${cRest} ${cRest} ${cRest} ${cRest} ${cRest} ${cRest} ${cRest} ${cRest} ${cRest} ${cRest} ${cRest} ${cRest} ${cRest} ${cRest} ${cRest} ${cRest} ${cRest} ${cRest} ${cRest} ${cRest} ${cRest} ${cRest} ${cRest} ${cRest} ${cRest} ${cRest} ${cRest} ${cRest} ${cRest} ${cRest} ${cRest} ${cRest} ${cRest} ${cRest} ${cRest} ${cRest} ${cRest} ${cRest} ${cRest} ${cRest} ${cRest} ${cRest} ${cRest} ${cRest} ${cRest} ${cRest} ${cRest} ${cRest} ${cRest} ${cRest} ${cRest} ${cRest} ${cRest} ${cRest} ${cRest} ${cRest} ${cRest} ${cRest} ${cRest} ${cRest} ${cRest} ${cRest} ${cRest} ${cRest} ${cRest} ${cRest} ${cRest} ${cRest} ${cRest} ${cRest} ${cRest} ${cRest} ${cRest} ${cRest} ${cRest} ${cRest} ${cRest} ${cRest} ${cRest} ${cRest} ${cRest} ${cRest} ${cRest} ${cRest} ${cRest} ${cRest} ${cRest} ${cRest} ${cRest} ${cRest} ${cRest} ${cRest} ${cRest} ${cRest} ${cRest} ${cRest} ${cRest} ${cRest} ${cRest} ${cRest} ${cRest} ${cRest} ${cRest} ${cRest} ${cRest} ${cRest} ${cRest} ${cRest} ${cRest} ${cRest} ${cRest} ${cRest} ${cRest} ${cRest} ${cRest} ${cRest} ${cRest} ${cRest} ${cRest} ${cRest} ${cRest} ${cRest} ${cRest} ${cRest} ${cRest} ${cRest} ${cRest} ${cRest} ${cRest} ${cRest} ${cRest} ${cRest} ${cRest} ${cRest} ${cRest} ${cRest} ${cRest} ${cRest} ${cRest}
fix             p9 all property/global coefficientRestitution peratomtypepair 15 0.1 0.1 0.1 0.1 0.1 0.1 0.1 0.1 0.1 ${cRest} ${cRest} ${cRest} ${cRest} ${cRest} ${cRest} ${cRest} ${cRest} ${cRest} ${cRest} ${cRest} ${cRest} ${cRest} ${cRest} ${cRest} ${cRest} ${cRest} ${cRest} ${cRest} ${cRest} ${cRest} ${cRest} ${cRest} ${cRest} ${cRest} ${cRest} ${cRest} ${cRest} ${cRest} ${cRest} ${cRest} ${cRest} ${cRest} ${cRest} ${cRest} ${cRest} ${cRest} ${cRest} ${cRest} ${cRest} ${cRest} ${cRest} ${cRest} ${cRest} ${cRest} ${cRest} ${cRest} ${cRest} ${cRest} ${cRest} ${cRest} ${cRest} ${cRest} ${cRest} ${cRest} ${cRest} ${cRest} ${cRest} ${cRest} ${cRest} ${cRest} ${cRest} ${cRest} ${cRest} ${cRest} ${cRest} ${cRest} ${cRest} ${cRest} ${cRest} ${cRest} ${cRest} ${cRest} ${cRest} ${cRest} ${cRest} ${cRest} ${cRest} ${cRest} ${cRest} ${cRest} ${cRest} ${cRest} ${cRest} ${cRest} ${cRest} ${cRest} ${cRest} ${cRest} ${cRest} ${cRest} ${cRest} ${cRest} ${cRest} ${cRest} ${cRest} ${cRest} ${cRest} ${cRest} ${cRest} ${cRest} ${cRest} ${cRest} ${cRest} ${cRest} ${cRest} ${cRest} ${cRest} ${cRest} ${cRest} ${cRest} ${cRest} ${cRest} ${cRest} ${cRest} ${cRest} ${cRest} ${cRest} ${cRest} ${cRest} ${cRest} ${cRest} ${cRest} ${cRest} ${cRest} ${cRest} ${cRest} ${cRest} ${cRest} ${cRest} ${cRest} ${cRest} ${cRest} ${cRest} ${cRest} ${cRest} ${cRest} ${cRest} ${cRest} ${cRest} ${cRest} ${cRest} ${cRest} ${cRest} ${cRest} ${cRest} ${cRest} ${cRest} ${cRest} ${cRest} ${cRest} ${cRest} ${cRest} ${cRest} ${cRest} ${cRest} ${cRest} ${cRest} ${cRest} ${cRest} ${cRest} ${cRest} ${cRest} ${cRest} ${cRest} ${cRest} ${cRest} ${cRest} ${cRest} ${cRest} ${cRest} ${cRest} ${cRest} ${cRest} ${cRest} ${cRest} ${cRest} ${cRest} ${cRest} ${cRest} ${cRest} ${cRest} ${cRest} ${cRest} ${cRest} ${cRest} ${cRest} ${cRest} ${cRest} ${cRest} ${cRest} ${cRest} ${cRest} ${cRest} ${cRest} ${cRest} ${cRest} ${cRest} ${cRest} ${cRest} ${cRest} ${cRest} ${cRest} ${cRest} ${cRest} ${cRest} ${cRest} ${cRest} ${cRest} ${cRest} ${cRest} ${cRest} ${cRest} ${cRest} ${cRest} ${cRest}
fix             p9 all property/global coefficientRestitution peratomtypepair 15 0.1 0.1 0.1 0.1 0.1 0.1 0.1 0.1 0.1 0.1 ${cRest} ${cRest} ${cRest} ${cRest} ${cRest} ${cRest} ${cRest} ${cRest} ${cRest} ${cRest} ${cRest} ${cRest} ${cRest} ${cRest} ${cRest} ${cRest} ${cRest} ${cRest} ${cRest} ${cRest} ${cRest} ${cRest} ${cRest} ${cRest} ${cRest} ${cRest} ${cRest} ${cRest} ${cRest} ${cRest} ${cRest} ${cRest} ${cRest} ${cRest} ${cRest} ${cRest} ${cRest} ${cRest} ${cRest} ${cRest} ${cRest} ${cRest} ${cRest} ${cRest} ${cRest} ${cRest} ${cRest} ${cRest} ${cRest} ${cRest} ${cRest} ${cRest} ${cRest} ${cRest} ${cRest} ${cRest} ${cRest} ${cRest} ${cRest} ${cRest} ${cRest} ${cRest} ${cRest} ${cRest} ${cRest} ${cRest} ${cRest} ${cRest} ${cRest} ${cRest} ${cRest} ${cRest} ${cRest} ${cRest} ${cRest} ${cRest} ${cRest} ${cRest} ${cRest} ${cRest} ${cRest} ${cRest} ${cRest} ${cRest} ${cRest} ${cRest} ${cRest} ${cRest} ${cRest} ${cRest} ${cRest} ${cRest} ${cRest} ${cRest} ${cRest} ${cRest} ${cRest} ${cRest} ${cRest} ${cRest} ${cRest} ${cRest} ${cRest} ${cRest} ${cRest} ${cRest} ${cRest} ${cRest} ${cRest} ${cRest} ${cRest} ${cRest} ${cRest} ${cRest} ${cRest} ${cRest} ${cRest} ${cRest} ${cRest} ${cRest} ${cRest} ${cRest} ${cRest} ${cRest} ${cRest} ${cRest} ${cRest} ${cRest} ${cRest} ${cRest} ${cRest} ${cRest} ${cRest} ${cRest} ${cRest} ${cRest} ${cRest} ${cRest} ${cRest} ${cRest} ${cRest} ${cRest} ${cRest} ${cRest} ${cRest} ${cRest} ${cRest} ${cRest} ${cRest} ${cRest} ${cRest} ${cRest} ${cRest} ${cRest} ${cRest} ${cRest} ${cRest} ${cRest} ${cRest} ${cRest} ${cRest} ${cRest} ${cRest} ${cRest} ${cRest} ${cRest} ${cRest} ${cRest} ${cRest} ${cRest} ${cRest} ${cRest} ${cRest} ${cRest} ${cRest} ${cRest} ${cRest} ${cRest} ${cRest} ${cRest} ${cRest} ${cRest} ${cRest} ${cRest} ${cRest} ${cRest} ${cRest} ${cRest} ${cRest} ${cRest} ${cRest} ${cRest} ${cRest} ${cRest} ${cRest} ${cRest} ${cRest} ${cRest} ${cRest} ${cRest} ${cRest} ${cRest} ${cRest} ${cRest} ${cRest} ${cRest} ${cRest} ${cRest} ${cRest} ${cRest} ${cRest} ${cRest} ${cRest} ${cRest} ${cRest}
fix             p9 all property/global coefficientRestitution peratomtypepair 15 0.1 0.1 0.1 0.1 0.1 0.1 0.1 0.1 0.1 0.1 0.1 ${cRest} ${cRest} ${cRest} ${cRest} ${cRest} ${cRest} ${cRest} ${cRest} ${cRest} ${cRest} ${cRest} ${cRest} ${cRest} ${cRest} ${cRest} ${cRest} ${cRest} ${cRest} ${cRest} ${cRest} ${cRest} ${cRest} ${cRest} ${cRest} ${cRest} ${cRest} ${cRest} ${cRest} ${cRest} ${cRest} ${cRest} ${cRest} ${cRest} ${cRest} ${cRest} ${cRest} ${cRest} ${cRest} ${cRest} ${cRest} ${cRest} ${cRest} ${cRest} ${cRest} ${cRest} ${cRest} ${cRest} ${cRest} ${cRest} ${cRest} ${cRest} ${cRest} ${cRest} ${cRest} ${cRest} ${cRest} ${cRest} ${cRest} ${cRest} ${cRest} ${cRest} ${cRest} ${cRest} ${cRest} ${cRest} ${cRest} ${cRest} ${cRest} ${cRest} ${cRest} ${cRest} ${cRest} ${cRest} ${cRest} ${cRest} ${cRest} ${cRest} ${cRest} ${cRest} ${cRest} ${cRest} ${cRest} ${cRest} ${cRest} ${cRest} ${cRest} ${cRest} ${cRest} ${cRest} ${cRest} ${cRest} ${cRest} ${cRest} ${cRest} ${cRest} ${cRest} ${cRest} ${cRest} ${cRest} ${cRest} ${cRest} ${cRest} ${cRest} ${cRest} ${cRest} ${cRest} ${cRest} ${cRest} ${cRest} ${cRest} ${cRest} ${cRest} ${cRest} ${cRest} ${cRest} ${cRest} ${cRest} ${cRest} ${cRest} ${cRest} ${cRest} ${cRest} ${cRest} ${cRest} ${cRest} ${cRest} ${cRest} ${cRest} ${cRest} ${cRest} ${cRest} ${cRest} ${cRest} ${cRest} ${cRest} ${cRest} ${cRest} ${cRest} ${cRest} ${cRest} ${cRest} ${cRest} ${cRest} ${cRest} ${cRest} ${cRest} ${cRest} ${cRest} ${cRest} ${cRest} ${cRest} ${cRest} ${cRest} ${cRest} ${cRest} ${cRest} ${cRest} ${cRest} ${cRest} ${cRest} ${cRest} ${cRest} ${cRest} ${cRest} ${cRest} ${cRest} ${cRest} ${cRest} ${cRest} ${cRest} ${cRest} ${cRest} ${cRest} ${cRest} ${cRest} ${cRest} ${cRest} ${cRest} ${cRest} ${cRest} ${cRest} ${cRest} ${cRest} ${cRest} ${cRest} ${cRest} ${cRest} ${cRest} ${cRest} ${cRest} ${cRest} ${cRest} ${cRest} ${cRest} ${cRest} ${cRest} ${cRest} ${cRest} ${cRest} ${cRest} ${cRest} ${cRest} ${cRest} ${cRest} ${cRest} ${cRest} ${cRest} ${cRest} ${cRest} ${cRest} ${cRest} ${cRest} ${cRest} ${cRest}
fix             p9 all property/global coefficientRestitution peratomtypepair 15 0.1 0.1 0.1 0.1 0.1 0.1 0.1 0.1 0.1 0.1 0.1 0.1 ${cRest} ${cRest} ${cRest} ${cRest} ${cRest} ${cRest} ${cRest} ${cRest} ${cRest} ${cRest} ${cRest} ${cRest} ${cRest} ${cRest} ${cRest} ${cRest} ${cRest} ${cRest} ${cRest} ${cRest} ${cRest} ${cRest} ${cRest} ${cRest} ${cRest} ${cRest} ${cRest} ${cRest} ${cRest} ${cRest} ${cRest} ${cRest} ${cRest} ${cRest} ${cRest} ${cRest} ${cRest} ${cRest} ${cRest} ${cRest} ${cRest} ${cRest} ${cRest} ${cRest} ${cRest} ${cRest} ${cRest} ${cRest} ${cRest} ${cRest} ${cRest} ${cRest} ${cRest} ${cRest} ${cRest} ${cRest} ${cRest} ${cRest} ${cRest} ${cRest} ${cRest} ${cRest} ${cRest} ${cRest} ${cRest} ${cRest} ${cRest} ${cRest} ${cRest} ${cRest} ${cRest} ${cRest} ${cRest} ${cRest} ${cRest} ${cRest} ${cRest} ${cRest} ${cRest} ${cRest} ${cRest} ${cRest} ${cRest} ${cRest} ${cRest} ${cRest} ${cRest} ${cRest} ${cRest} ${cRest} ${cRest} ${cRest} ${cRest} ${cRest} ${cRest} ${cRest} ${cRest} ${cRest} ${cRest} ${cRest} ${cRest} ${cRest} ${cRest} ${cRest} ${cRest} ${cRest} ${cRest} ${cRest} ${cRest} ${cRest} ${cRest} ${cRest} ${cRest} ${cRest} ${cRest} ${cRest} ${cRest} ${cRest} ${cRest} ${cRest} ${cRest} ${cRest} ${cRest} ${cRest} ${cRest} ${cRest} ${cRest} ${cRest} ${cRest} ${cRest} ${cRest} ${cRest} ${cRest} ${cRest} ${cRest} ${cRest} ${cRest} ${cRest} ${cRest} ${cRest} ${cRest} ${cRest} ${cRest} ${cRest} ${cRest} ${cRest} ${cRest} ${cRest} ${cRest} ${cRest} ${cRest} ${cRest} ${cRest} ${cRest} ${cRest} ${cRest} ${cRest} ${cRest} ${cRest} ${cRest} ${cRest} ${cRest} ${cRest} ${cRest} ${cRest} ${cRest} ${cRest} ${cRest} ${cRest} ${cRest} ${cRest} ${cRest} ${cRest} ${cRest} ${cRest} ${cRest} ${cRest} ${cRest} ${cRest} ${cRest} ${cRest} ${cRest} ${cRest} ${cRest} ${cRest} ${cRest} ${cRest} ${cRest} ${cRest} ${cRest} ${cRest} ${cRest} ${cRest} ${cRest} ${cRest} ${cRest} ${cRest} ${cRest} ${cRest} ${cRest} ${cRest} ${cRest} ${cRest} ${cRest} ${cRest} ${cRest} ${cRest} ${cRest} ${cRest} ${cRest} ${cRest} ${cRest} ${cRest}
fix             p9 all property/global coefficientRestitution peratomtypepair 15 0.1 0.1 0.1 0.1 0.1 0.1 0.1 0.1 0.1 0.1 0.1 0.1 0.1 ${cRest} ${cRest} ${cRest} ${cRest} ${cRest} ${cRest} ${cRest} ${cRest} ${cRest} ${cRest} ${cRest} ${cRest} ${cRest} ${cRest} ${cRest} ${cRest} ${cRest} ${cRest} ${cRest} ${cRest} ${cRest} ${cRest} ${cRest} ${cRest} ${cRest} ${cRest} ${cRest} ${cRest} ${cRest} ${cRest} ${cRest} ${cRest} ${cRest} ${cRest} ${cRest} ${cRest} ${cRest} ${cRest} ${cRest} ${cRest} ${cRest} ${cRest} ${cRest} ${cRest} ${cRest} ${cRest} ${cRest} ${cRest} ${cRest} ${cRest} ${cRest} ${cRest} ${cRest} ${cRest} ${cRest} ${cRest} ${cRest} ${cRest} ${cRest} ${cRest} ${cRest} ${cRest} ${cRest} ${cRest} ${cRest} ${cRest} ${cRest} ${cRest} ${cRest} ${cRest} ${cRest} ${cRest} ${cRest} ${cRest} ${cRest} ${cRest} ${cRest} ${cRest} ${cRest} ${cRest} ${cRest} ${cRest} ${cRest} ${cRest} ${cRest} ${cRest} ${cRest} ${cRest} ${cRest} ${cRest} ${cRest} ${cRest} ${cRest} ${cRest} ${cRest} ${cRest} ${cRest} ${cRest} ${cRest} ${cRest} ${cRest} ${cRest} ${cRest} ${cRest} ${cRest} ${cRest} ${cRest} ${cRest} ${cRest} ${cRest} ${cRest} ${cRest} ${cRest} ${cRest} ${cRest} ${cRest} ${cRest} ${cRest} ${cRest} ${cRest} ${cRest} ${cRest} ${cRest} ${cRest} ${cRest} ${cRest} ${cRest} ${cRest} ${cRest} ${cRest} ${cRest} ${cRest} ${cRest} ${cRest} ${cRest} ${cRest} ${cRest} ${cRest} ${cRest} ${cRest} ${cRest} ${cRest} ${cRest} ${cRest} ${cRest} ${cRest} ${cRest} ${cRest} ${cRest} ${cRest} ${cRest} ${cRest} ${cRest} ${cRest} ${cRest} ${cRest} ${cRest} ${cRest} ${cRest} ${cRest} ${cRest} ${cRest} ${cRest} ${cRest} ${cRest} ${cRest} ${cRest} ${cRest} ${cRest} ${cRest} ${cRest} ${cRest} ${cRest} ${cRest} ${cRest} ${cRest} ${cRest} ${cRest} ${cRest} ${cRest} ${cRest} ${cRest} ${cRest} ${cRest} ${cRest} ${cRest} ${cRest} ${cRest} ${cRest} ${cRest} ${cRest} ${cRest} ${cRest} ${cRest} ${cRest} ${cRest} ${cRest} ${cRest} ${cRest} ${cRest} ${cRest} ${cRest} ${cRest} ${cRest} ${cRest} ${cRest} ${cRest} ${cRest} ${cRest} ${cRest} ${cRest} ${cRest}
fix             p9 all property/global coefficientRestitution peratomtypepair 15 0.1 0.1 0.1 0.1 0.1 0.1 0.1 0.1 0.1 0.1 0.1 0.1 0.1 0.1 ${cRest} ${cRest} ${cRest} ${cRest} ${cRest} ${cRest} ${cRest} ${cRest} ${cRest} ${cRest} ${cRest} ${cRest} ${cRest} ${cRest} ${cRest} ${cRest} ${cRest} ${cRest} ${cRest} ${cRest} ${cRest} ${cRest} ${cRest} ${cRest} ${cRest} ${cRest} ${cRest} ${cRest} ${cRest} ${cRest} ${cRest} ${cRest} ${cRest} ${cRest} ${cRest} ${cRest} ${cRest} ${cRest} ${cRest} ${cRest} ${cRest} ${cRest} ${cRest} ${cRest} ${cRest} ${cRest} ${cRest} ${cRest} ${cRest} ${cRest} ${cRest} ${cRest} ${cRest} ${cRest} ${cRest} ${cRest} ${cRest} ${cRest} ${cRest} ${cRest} ${cRest} ${cRest} ${cRest} ${cRest} ${cRest} ${cRest} ${cRest} ${cRest} ${cRest} ${cRest} ${cRest} ${cRest} ${cRest} ${cRest} ${cRest} ${cRest} ${cRest} ${cRest} ${cRest} ${cRest} ${cRest} ${cRest} ${cRest} ${cRest} ${cRest} ${cRest} ${cRest} ${cRest} ${cRest} ${cRest} ${cRest} ${cRest} ${cRest} ${cRest} ${cRest} ${cRest} ${cRest} ${cRest} ${cRest} ${cRest} ${cRest} ${cRest} ${cRest} ${cRest} ${cRest} ${cRest} ${cRest} ${cRest} ${cRest} ${cRest} ${cRest} ${cRest} ${cRest} ${cRest} ${cRest} ${cRest} ${cRest} ${cRest} ${cRest} ${cRest} ${cRest} ${cRest} ${cRest} ${cRest} ${cRest} ${cRest} ${cRest} ${cRest} ${cRest} ${cRest} ${cRest} ${cRest} ${cRest} ${cRest} ${cRest} ${cRest} ${cRest} ${cRest} ${cRest} ${cRest} ${cRest} ${cRest} ${cRest} ${cRest} ${cRest} ${cRest} ${cRest} ${cRest} ${cRest} ${cRest} ${cRest} ${cRest} ${cRest} ${cRest} ${cRest} ${cRest} ${cRest} ${cRest} ${cRest} ${cRest} ${cRest} ${cRest} ${cRest} ${cRest} ${cRest} ${cRest} ${cRest} ${cRest} ${cRest} ${cRest} ${cRest} ${cRest} ${cRest} ${cRest} ${cRest} ${cRest} ${cRest} ${cRest} ${cRest} ${cRest} ${cRest} ${cRest} ${cRest} ${cRest} ${cRest} ${cRest} ${cRest} ${cRest} ${cRest} ${cRest} ${cRest} ${cRest} ${cRest} ${cRest} ${cRest} ${cRest} ${cRest} ${cRest} ${cRest} ${cRest} ${cRest} ${cRest} ${cRest} ${cRest} ${cRest} ${cRest} ${cRest} ${cRest} ${cRest} ${cRest} ${cRest}
fix             p9 all property/global coefficientRestitution peratomtypepair 15 0.1 0.1 0.1 0.1 0.1 0.1 0.1 0.1 0.1 0.1 0.1 0.1 0.1 0.1 0.1 ${cRest} ${cRest} ${cRest} ${cRest} ${cRest} ${cRest} ${cRest} ${cRest} ${cRest} ${cRest} ${cRest} ${cRest} ${cRest} ${cRest} ${cRest} ${cRest} ${cRest} ${cRest} ${cRest} ${cRest} ${cRest} ${cRest} ${cRest} ${cRest} ${cRest} ${cRest} ${cRest} ${cRest} ${cRest} ${cRest} ${cRest} ${cRest} ${cRest} ${cRest} ${cRest} ${cRest} ${cRest} ${cRest} ${cRest} ${cRest} ${cRest} ${cRest} ${cRest} ${cRest} ${cRest} ${cRest} ${cRest} ${cRest} ${cRest} ${cRest} ${cRest} ${cRest} ${cRest} ${cRest} ${cRest} ${cRest} ${cRest} ${cRest} ${cRest} ${cRest} ${cRest} ${cRest} ${cRest} ${cRest} ${cRest} ${cRest} ${cRest} ${cRest} ${cRest} ${cRest} ${cRest} ${cRest} ${cRest} ${cRest} ${cRest} ${cRest} ${cRest} ${cRest} ${cRest} ${cRest} ${cRest} ${cRest} ${cRest} ${cRest} ${cRest} ${cRest} ${cRest} ${cRest} ${cRest} ${cRest} ${cRest} ${cRest} ${cRest} ${cRest} ${cRest} ${cRest} ${cRest} ${cRest} ${cRest} ${cRest} ${cRest} ${cRest} ${cRest} ${cRest} ${cRest} ${cRest} ${cRest} ${cRest} ${cRest} ${cRest} ${cRest} ${cRest} ${cRest} ${cRest} ${cRest} ${cRest} ${cRest} ${cRest} ${cRest} ${cRest} ${cRest} ${cRest} ${cRest} ${cRest} ${cRest} ${cRest} ${cRest} ${cRest} ${cRest} ${cRest} ${cRest} ${cRest} ${cRest} ${cRest} ${cRest} ${cRest} ${cRest} ${cRest} ${cRest} ${cRest} ${cRest} ${cRest} ${cRest} ${cRest} ${cRest} ${cRest} ${cRest} ${cRest} ${cRest} ${cRest} ${cRest} ${cRest} ${cRest} ${cRest} ${cRest} ${cRest} ${cRest} ${cRest} ${cRest} ${cRest} ${cRest} ${cRest} ${cRest} ${cRest} ${cRest} ${cRest} ${cRest} ${cRest} ${cRest} ${cRest} ${cRest} ${cRest} ${cRest} ${cRest} ${cRest} ${cRest} ${cRest} ${cRest} ${cRest} ${cRest} ${cRest} ${cRest} ${cRest} ${cRest} ${cRest} ${cRest} ${cRest} ${cRest} ${cRest} ${cRest} ${cRest} ${cRest} ${cRest} ${cRest} ${cRest} ${cRest} ${cRest} ${cRest} ${cRest} ${cRest} ${cRest} ${cRest} ${cRest} ${cRest} ${cRest} ${cRest} ${cRest} ${cRest} ${cRest} ${cRest}
fix             p9 all property/global coefficientRestitution peratomtypepair 15 0.1 0.1 0.1 0.1 0.1 0.1 0.1 0.1 0.1 0.1 0.1 0.1 0.1 0.1 0.1 0.1 ${cRest} ${cRest} ${cRest} ${cRest} ${cRest} ${cRest} ${cRest} ${cRest} ${cRest} ${cRest} ${cRest} ${cRest} ${cRest} ${cRest} ${cRest} ${cRest} ${cRest} ${cRest} ${cRest} ${cRest} ${cRest} ${cRest} ${cRest} ${cRest} ${cRest} ${cRest} ${cRest} ${cRest} ${cRest} ${cRest} ${cRest} ${cRest} ${cRest} ${cRest} ${cRest} ${cRest} ${cRest} ${cRest} ${cRest} ${cRest} ${cRest} ${cRest} ${cRest} ${cRest} ${cRest} ${cRest} ${cRest} ${cRest} ${cRest} ${cRest} ${cRest} ${cRest} ${cRest} ${cRest} ${cRest} ${cRest} ${cRest} ${cRest} ${cRest} ${cRest} ${cRest} ${cRest} ${cRest} ${cRest} ${cRest} ${cRest} ${cRest} ${cRest} ${cRest} ${cRest} ${cRest} ${cRest} ${cRest} ${cRest} ${cRest} ${cRest} ${cRest} ${cRest} ${cRest} ${cRest} ${cRest} ${cRest} ${cRest} ${cRest} ${cRest} ${cRest} ${cRest} ${cRest} ${cRest} ${cRest} ${cRest} ${cRest} ${cRest} ${cRest} ${cRest} ${cRest} ${cRest} ${cRest} ${cRest} ${cRest} ${cRest} ${cRest} ${cRest} ${cRest} ${cRest} ${cRest} ${cRest} ${cRest} ${cRest} ${cRest} ${cRest} ${cRest} ${cRest} ${cRest} ${cRest} ${cRest} ${cRest} ${cRest} ${cRest} ${cRest} ${cRest} ${cRest} ${cRest} ${cRest} ${cRest} ${cRest} ${cRest} ${cRest} ${cRest} ${cRest} ${cRest} ${cRest} ${cRest} ${cRest} ${cRest} ${cRest} ${cRest} ${cRest} ${cRest} ${cRest} ${cRest} ${cRest} ${cRest} ${cRest} ${cRest} ${cRest} ${cRest} ${cRest} ${cRest} ${cRest} ${cRest} ${cRest} ${cRest} ${cRest} ${cRest} ${cRest} ${cRest} ${cRest} ${cRest} ${cRest} ${cRest} ${cRest} ${cRest} ${cRest} ${cRest} ${cRest} ${cRest} ${cRest} ${cRest} ${cRest} ${cRest} ${cRest} ${cRest} ${cRest} ${cRest} ${cRest} ${cRest} ${cRest} ${cRest} ${cRest} ${cRest} ${cRest} ${cRest} ${cRest} ${cRest} ${cRest} ${cRest} ${cRest} ${cRest} ${cRest} ${cRest} ${cRest} ${cRest} ${cRest} ${cRest} ${cRest} ${cRest} ${cRest} ${cRest} ${cRest} ${cRest} ${cRest} ${cRest} ${cRest} ${cRest} ${cRest} ${cRest} ${cRest} ${cRest}
fix             p9 all property/global coefficientRestitution peratomtypepair 15 0.1 0.1 0.1 0.1 0.1 0.1 0.1 0.1 0.1 0.1 0.1 0.1 0.1 0.1 0.1 0.1 0.1 ${cRest} ${cRest} ${cRest} ${cRest} ${cRest} ${cRest} ${cRest} ${cRest} ${cRest} ${cRest} ${cRest} ${cRest} ${cRest} ${cRest} ${cRest} ${cRest} ${cRest} ${cRest} ${cRest} ${cRest} ${cRest} ${cRest} ${cRest} ${cRest} ${cRest} ${cRest} ${cRest} ${cRest} ${cRest} ${cRest} ${cRest} ${cRest} ${cRest} ${cRest} ${cRest} ${cRest} ${cRest} ${cRest} ${cRest} ${cRest} ${cRest} ${cRest} ${cRest} ${cRest} ${cRest} ${cRest} ${cRest} ${cRest} ${cRest} ${cRest} ${cRest} ${cRest} ${cRest} ${cRest} ${cRest} ${cRest} ${cRest} ${cRest} ${cRest} ${cRest} ${cRest} ${cRest} ${cRest} ${cRest} ${cRest} ${cRest} ${cRest} ${cRest} ${cRest} ${cRest} ${cRest} ${cRest} ${cRest} ${cRest} ${cRest} ${cRest} ${cRest} ${cRest} ${cRest} ${cRest} ${cRest} ${cRest} ${cRest} ${cRest} ${cRest} ${cRest} ${cRest} ${cRest} ${cRest} ${cRest} ${cRest} ${cRest} ${cRest} ${cRest} ${cRest} ${cRest} ${cRest} ${cRest} ${cRest} ${cRest} ${cRest} ${cRest} ${cRest} ${cRest} ${cRest} ${cRest} ${cRest} ${cRest} ${cRest} ${cRest} ${cRest} ${cRest} ${cRest} ${cRest} ${cRest} ${cRest} ${cRest} ${cRest} ${cRest} ${cRest} ${cRest} ${cRest} ${cRest} ${cRest} ${cRest} ${cRest} ${cRest} ${cRest} ${cRest} ${cRest} ${cRest} ${cRest} ${cRest} ${cRest} ${cRest} ${cRest} ${cRest} ${cRest} ${cRest} ${cRest} ${cRest} ${cRest} ${cRest} ${cRest} ${cRest} ${cRest} ${cRest} ${cRest} ${cRest} ${cRest} ${cRest} ${cRest} ${cRest} ${cRest} ${cRest} ${cRest} ${cRest} ${cRest} ${cRest} ${cRest} ${cRest} ${cRest} ${cRest} ${cRest} ${cRest} ${cRest} ${cRest} ${cRest} ${cRest} ${cRest} ${cRest} ${cRest} ${cRest} ${cRest} ${cRest} ${cRest} ${cRest} ${cRest} ${cRest} ${cRest} ${cRest} ${cRest} ${cRest} ${cRest} ${cRest} ${cRest} ${cRest} ${cRest} ${cRest} ${cRest} ${cRest} ${cRest} ${cRest} ${cRest} ${cRest} ${cRest} ${cRest} ${cRest} ${cRest} ${cRest} ${cRest} ${cRest} ${cRest} ${cRest} ${cRest} ${cRest} ${cRest} ${cRest}
fix             p9 all property/global coefficientRestitution peratomtypepair 15 0.1 0.1 0.1 0.1 0.1 0.1 0.1 0.1 0.1 0.1 0.1 0.1 0.1 0.1 0.1 0.1 0.1 0.1 ${cRest} ${cRest} ${cRest} ${cRest} ${cRest} ${cRest} ${cRest} ${cRest} ${cRest} ${cRest} ${cRest} ${cRest} ${cRest} ${cRest} ${cRest} ${cRest} ${cRest} ${cRest} ${cRest} ${cRest} ${cRest} ${cRest} ${cRest} ${cRest} ${cRest} ${cRest} ${cRest} ${cRest} ${cRest} ${cRest} ${cRest} ${cRest} ${cRest} ${cRest} ${cRest} ${cRest} ${cRest} ${cRest} ${cRest} ${cRest} ${cRest} ${cRest} ${cRest} ${cRest} ${cRest} ${cRest} ${cRest} ${cRest} ${cRest} ${cRest} ${cRest} ${cRest} ${cRest} ${cRest} ${cRest} ${cRest} ${cRest} ${cRest} ${cRest} ${cRest} ${cRest} ${cRest} ${cRest} ${cRest} ${cRest} ${cRest} ${cRest} ${cRest} ${cRest} ${cRest} ${cRest} ${cRest} ${cRest} ${cRest} ${cRest} ${cRest} ${cRest} ${cRest} ${cRest} ${cRest} ${cRest} ${cRest} ${cRest} ${cRest} ${cRest} ${cRest} ${cRest} ${cRest} ${cRest} ${cRest} ${cRest} ${cRest} ${cRest} ${cRest} ${cRest} ${cRest} ${cRest} ${cRest} ${cRest} ${cRest} ${cRest} ${cRest} ${cRest} ${cRest} ${cRest} ${cRest} ${cRest} ${cRest} ${cRest} ${cRest} ${cRest} ${cRest} ${cRest} ${cRest} ${cRest} ${cRest} ${cRest} ${cRest} ${cRest} ${cRest} ${cRest} ${cRest} ${cRest} ${cRest} ${cRest} ${cRest} ${cRest} ${cRest} ${cRest} ${cRest} ${cRest} ${cRest} ${cRest} ${cRest} ${cRest} ${cRest} ${cRest} ${cRest} ${cRest} ${cRest} ${cRest} ${cRest} ${cRest} ${cRest} ${cRest} ${cRest} ${cRest} ${cRest} ${cRest} ${cRest} ${cRest} ${cRest} ${cRest} ${cRest} ${cRest} ${cRest} ${cRest} ${cRest} ${cRest} ${cRest} ${cRest} ${cRest} ${cRest} ${cRest} ${cRest} ${cRest} ${cRest} ${cRest} ${cRest} ${cRest} ${cRest} ${cRest} ${cRest} ${cRest} ${cRest} ${cRest} ${cRest} ${cRest} ${cRest} ${cRest} ${cRest} ${cRest} ${cRest} ${cRest} ${cRest} ${cRest} ${cRest} ${cRest} ${cRest} ${cRest} ${cRest} ${cRest} ${cRest} ${cRest} ${cRest} ${cRest} ${cRest} ${cRest} ${cRest} ${cRest} ${cRest} ${cRest} ${cRest} ${cRest} ${cRest} ${cRest} ${cRest}
fix             p9 all property/global coefficientRestitution peratomtypepair 15 0.1 0.1 0.1 0.1 0.1 0.1 0.1 0.1 0.1 0.1 0.1 0.1 0.1 0.1 0.1 0.1 0.1 0.1 0.1 ${cRest} ${cRest} ${cRest} ${cRest} ${cRest} ${cRest} ${cRest} ${cRest} ${cRest} ${cRest} ${cRest} ${cRest} ${cRest} ${cRest} ${cRest} ${cRest} ${cRest} ${cRest} ${cRest} ${cRest} ${cRest} ${cRest} ${cRest} ${cRest} ${cRest} ${cRest} ${cRest} ${cRest} ${cRest} ${cRest} ${cRest} ${cRest} ${cRest} ${cRest} ${cRest} ${cRest} ${cRest} ${cRest} ${cRest} ${cRest} ${cRest} ${cRest} ${cRest} ${cRest} ${cRest} ${cRest} ${cRest} ${cRest} ${cRest} ${cRest} ${cRest} ${cRest} ${cRest} ${cRest} ${cRest} ${cRest} ${cRest} ${cRest} ${cRest} ${cRest} ${cRest} ${cRest} ${cRest} ${cRest} ${cRest} ${cRest} ${cRest} ${cRest} ${cRest} ${cRest} ${cRest} ${cRest} ${cRest} ${cRest} ${cRest} ${cRest} ${cRest} ${cRest} ${cRest} ${cRest} ${cRest} ${cRest} ${cRest} ${cRest} ${cRest} ${cRest} ${cRest} ${cRest} ${cRest} ${cRest} ${cRest} ${cRest} ${cRest} ${cRest} ${cRest} ${cRest} ${cRest} ${cRest} ${cRest} ${cRest} ${cRest} ${cRest} ${cRest} ${cRest} ${cRest} ${cRest} ${cRest} ${cRest} ${cRest} ${cRest} ${cRest} ${cRest} ${cRest} ${cRest} ${cRest} ${cRest} ${cRest} ${cRest} ${cRest} ${cRest} ${cRest} ${cRest} ${cRest} ${cRest} ${cRest} ${cRest} ${cRest} ${cRest} ${cRest} ${cRest} ${cRest} ${cRest} ${cRest} ${cRest} ${cRest} ${cRest} ${cRest} ${cRest} ${cRest} ${cRest} ${cRest} ${cRest} ${cRest} ${cRest} ${cRest} ${cRest} ${cRest} ${cRest} ${cRest} ${cRest} ${cRest} ${cRest} ${cRest} ${cRest} ${cRest} ${cRest} ${cRest} ${cRest} ${cRest} ${cRest} ${cRest} ${cRest} ${cRest} ${cRest} ${cRest} ${cRest} ${cRest} ${cRest} ${cRest} ${cRest} ${cRest} ${cRest} ${cRest} ${cRest} ${cRest} ${cRest} ${cRest} ${cRest} ${cRest} ${cRest} ${cRest} ${cRest} ${cRest} ${cRest} ${cRest} ${cRest} ${cRest} ${cRest} ${cRest} ${cRest} ${cRest} ${cRest} ${cRest} ${cRest} ${cRest} ${cRest} ${cRest} ${cRest} ${cRest} ${cRest} ${cRest} ${cRest} ${cRest} ${cRest} ${cRest} ${cRest}
fix             p9 all property/global coefficientRestitution peratomtypepair 15 0.1 0.1 0.1 0.1 0.1 0.1 0.1 0.1 0.1 0.1 0.1 0.1 0.1 0.1 0.1 0.1 0.1 0.1 0.1 0.1 ${cRest} ${cRest} ${cRest} ${cRest} ${cRest} ${cRest} ${cRest} ${cRest} ${cRest} ${cRest} ${cRest} ${cRest} ${cRest} ${cRest} ${cRest} ${cRest} ${cRest} ${cRest} ${cRest} ${cRest} ${cRest} ${cRest} ${cRest} ${cRest} ${cRest} ${cRest} ${cRest} ${cRest} ${cRest} ${cRest} ${cRest} ${cRest} ${cRest} ${cRest} ${cRest} ${cRest} ${cRest} ${cRest} ${cRest} ${cRest} ${cRest} ${cRest} ${cRest} ${cRest} ${cRest} ${cRest} ${cRest} ${cRest} ${cRest} ${cRest} ${cRest} ${cRest} ${cRest} ${cRest} ${cRest} ${cRest} ${cRest} ${cRest} ${cRest} ${cRest} ${cRest} ${cRest} ${cRest} ${cRest} ${cRest} ${cRest} ${cRest} ${cRest} ${cRest} ${cRest} ${cRest} ${cRest} ${cRest} ${cRest} ${cRest} ${cRest} ${cRest} ${cRest} ${cRest} ${cRest} ${cRest} ${cRest} ${cRest} ${cRest} ${cRest} ${cRest} ${cRest} ${cRest} ${cRest} ${cRest} ${cRest} ${cRest} ${cRest} ${cRest} ${cRest} ${cRest} ${cRest} ${cRest} ${cRest} ${cRest} ${cRest} ${cRest} ${cRest} ${cRest} ${cRest} ${cRest} ${cRest} ${cRest} ${cRest} ${cRest} ${cRest} ${cRest} ${cRest} ${cRest} ${cRest} ${cRest} ${cRest} ${cRest} ${cRest} ${cRest} ${cRest} ${cRest} ${cRest} ${cRest} ${cRest} ${cRest} ${cRest} ${cRest} ${cRest} ${cRest} ${cRest} ${cRest} ${cRest} ${cRest} ${cRest} ${cRest} ${cRest} ${cRest} ${cRest} ${cRest} ${cRest} ${cRest} ${cRest} ${cRest} ${cRest} ${cRest} ${cRest} ${cRest} ${cRest} ${cRest} ${cRest} ${cRest} ${cRest} ${cRest} ${cRest} ${cRest} ${cRest} ${cRest} ${cRest} ${cRest} ${cRest} ${cRest} ${cRest} ${cRest} ${cRest} ${cRest} ${cRest} ${cRest} ${cRest} ${cRest} ${cRest} ${cRest} ${cRest} ${cRest} ${cRest} ${cRest} ${cRest} ${cRest} ${cRest} ${cRest} ${cRest} ${cRest} ${cRest} ${cRest} ${cRest} ${cRest} ${cRest} ${cRest} ${cRest} ${cRest} ${cRest} ${cRest} ${cRest} ${cRest} ${cRest} ${cRest} ${cRest} ${cRest} ${cRest} ${cRest} ${cRest} ${cRest} ${cRest} ${cRest} ${cRest}
[...]
fix             p10 all property/global cohesionEnergyDensity peratomtypepair 15 0 0 0 0 0 0 0 0 0 0 0 0 0 3000000000 0 0 0 0 0 0 0 0 0 0 0 0 0 0 3000000000 0 0 0 0 0 0 0 0 0 0 0 0 0 0 3000000000 0 0 0 0 0 0 0 0 0 0 0 0 0 0 3000000000 0 0 0 0 0 0 0 0 0 0 0 0 0 0 3000000000 0 0 0 0 0 0 0 0 0 0 0 0 0 0 3000000000 0 0 0 0 0 0 0 0 0 0 0 0 0 0 3000000000 0 0 0 0 0 0 0 0 0 0 0 0 0 0 3000000000 0 0 0 0 0 0 0 0 0 0 0 0 0 0 3000000000 0 0 0 0 0 0 0 0 0 0 0 0 0 0 3000000000 0 0 0 0 0 0 0 0 0 0 0 0 0 0 3000000000 0 0 0 0 0 0 0 0 0 0 0 0 0 0 3000000000 0 0 0 0 0 0 0 0 0 0 0 0 0 0 3000000000 0 3000000000 3000000000 3000000000 3000000000 3000000000 3000000000 3000000000 3000000000 3000000000 3000000000 3000000000 3000000000 3000000000 3000000000 3000000000 0 0 0 0 0 0 0 ${kWall2} ${kWall2} ${kWall2} ${kWall2} ${kWall2} ${kWall2} ${kWall} ${kWall2}
fix             p10 all property/global cohesionEnergyDensity peratomtypepair 15 0 0 0 0 0 0 0 0 0 0 0 0 0 3000000000 0 0 0 0 0 0 0 0 0 0 0 0 0 0 3000000000 0 0 0 0 0 0 0 0 0 0 0 0 0 0 3000000000 0 0 0 0 0 0 0 0 0 0 0 0 0 0 3000000000 0 0 0 0 0 0 0 0 0 0 0 0 0 0 3000000000 0 0 0 0 0 0 0 0 0 0 0 0 0 0 3000000000 0 0 0 0 0 0 0 0 0 0 0 0 0 0 3000000000 0 0 0 0 0 0 0 0 0 0 0 0 0 0 3000000000 0 0 0 0 0 0 0 0 0 0 0 0 0 0 3000000000 0 0 0 0 0 0 0 0 0 0 0 0 0 0 3000000000 0 0 0 0 0 0 0 0 0 0 0 0 0 0 3000000000 0 0 0 0 0 0 0 0 0 0 0 0 0 0 3000000000 0 0 0 0 0 0 0 0 0 0 0 0 0 0 3000000000 0 3000000000 3000000000 3000000000 3000000000 3000000000 3000000000 3000000000 3000000000 3000000000 3000000000 3000000000 3000000000 3000000000 3000000000 3000000000 0 0 0 0 0 0 0 0 ${kWall2} ${kWall2} ${kWall2} ${kWall2} ${kWall2} ${kWall} ${kWall2}
fix             p10 all property/global cohesionEnergyDensity peratomtypepair 15 0 0 0 0 0 0 0 0 0 0 0 0 0 3000000000 0 0 0 0 0 0 0 0 0 0 0 0 0 0 3000000000 0 0 0 0 0 0 0 0 0 0 0 0 0 0 3000000000 0 0 0 0 0 0 0 0 0 0 0 0 0 0 3000000000 0 0 0 0 0 0 0 0 0 0 0 0 0 0 3000000000 0 0 0 0 0 0 0 0 0 0 0 0 0 0 3000000000 0 0 0 0 0 0 0 0 0 0 0 0 0 0 3000000000 0 0 0 0 0 0 0 0 0 0 0 0 0 0 3000000000 0 0 0 0 0 0 0 0 0 0 0 0 0 0 3000000000 0 0 0 0 0 0 0 0 0 0 0 0 0 0 3000000000 0 0 0 0 0 0 0 0 0 0 0 0 0 0 3000000000 0 0 0 0 0 0 0 0 0 0 0 0 0 0 3000000000 0 0 0 0 0 0 0 0 0 0 0 0 0 0 3000000000 0 3000000000 3000000000 3000000000 3000000000 3000000000 3000000000 3000000000 3000000000 3000000000 3000000000 3000000000 3000000000 3000000000 3000000000 3000000000 0 0 0 0 0 0 0 0 0 ${kWall2} ${kWall2} ${kWall2} ${kWall2} ${kWall} ${kWall2}
fix             p10 all property/global cohesionEnergyDensity peratomtypepair 15 0 0 0 0 0 0 0 0 0 0 0 0 0 3000000000 0 0 0 0 0 0 0 0 0 0 0 0 0 0 3000000000 0 0 0 0 0 0 0 0 0 0 0 0 0 0 3000000000 0 0 0 0 0 0 0 0 0 0 0 0 0 0 3000000000 0 0 0 0 0 0 0 0 0 0 0 0 0 0 3000000000 0 0 0 0 0 0 0 0 0 0 0 0 0 0 3000000000 0 0 0 0 0 0 0 0 0 0 0 0 0 0 3000000000 0 0 0 0 0 0 0 0 0 0 0 0 0 0 3000000000 0 0 0 0 0 0 0 0 0 0 0 0 0 0 3000000000 0 0 0 0 0 0 0 0 0 0 0 0 0 0 3000000000 0 0 0 0 0 0 0 0 0 0 0 0 0 0 3000000000 0 0 0 0 0 0 0 0 0 0 0 0 0 0 3000000000 0 0 0 0 0 0 0 0 0 0 0 0 0 0 3000000000 0 3000000000 3000000000 3000000000 3000000000 3000000000 3000000000 3000000000 3000000000 3000000000 3000000000 3000000000 3000000000 3000000000 3000000000 3000000000 0 0 0 0 0 0 0 0 0 0 ${kWall2} ${kWall2} ${kWall2} ${kWall} ${kWall2}
fix             p10 all property/global cohesionEnergyDensity peratomtypepair 15 0 0 0 0 0 0 0 0 0 0 0 0 0 3000000000 0 0 0 0 0 0 0 0 0 0 0 0 0 0 3000000000 0 0 0 0 0 0 0 0 0 0 0 0 0 0 3000000000 0 0 0 0 0 0 0 0 0 0 0 0 0 0 3000000000 0 0 0 0 0 0 0 0 0 0 0 0 0 0 3000000000 0 0 0 0 0 0 0 0 0 0 0 0 0 0 3000000000 0 0 0 0 0 0 0 0 0 0 0 0 0 0 3000000000 0 0 0 0 0 0 0 0 0 0 0 0 0 0 3000000000 0 0 0 0 0 0 0 0 0 0 0 0 0 0 3000000000 0 0 0 0 0 0 0 0 0 0 0 0 0 0 3000000000 0 0 0 0 0 0 0 0 0 0 0 0 0 0 3000000000 0 0 0 0 0 0 0 0 0 0 0 0 0 0 3000000000 0 0 0 0 0 0 0 0 0 0 0 0 0 0 3000000000 0 3000000000 3000000000 3000000000 3000000000 3000000000 3000000000 3000000000 3000000000 3000000000 3000000000 3000000000 3000000000 3000000000 3000000000 3000000000 0 0 0 0 0 0 0 0 0 0 0 ${kWall2} ${kWall2} ${kWall} ${kWall2}
fix             p10 all property/global cohesionEnergyDensity peratomtypepair 15 0 0 0 0 0 0 0 0 0 0 0 0 0 3000000000 0 0 0 0 0 0 0 0 0 0 0 0 0 0 3000000000 0 0 0 0 0 0 0 0 0 0 0 0 0 0 3000000000 0 0 0 0 0 0 0 0 0 0 0 0 0 0 3000000000 0 0 0 0 0 0 0 0 0 0 0 0 0 0 3000000000 0 0 0 0 0 0 0 0 0 0 0 0 0 0 3000000000 0 0 0 0 0 0 0 0 0 0 0 0 0 0 3000000000 0 0 0 0 0 0 0 0 0 0 0 0 0 0 3000000000 0 0 0 0 0 0 0 0 0 0 0 0 0 0 3000000000 0 0 0 0 0 0 0 0 0 0 0 0 0 0 3000000000 0 0 0 0 0 0 0 0 0 0 0 0 0 0 3000000000 0 0 0 0 0 0 0 0 0 0 0 0 0 0 3000000000 0 0 0 0 0 0 0 0 0 0 0 0 0 0 3000000000 0 3000000000 3000000000 3000000000 3000000000 3000000000 3000000000 3000000000 3000000000 3000000000 3000000000 3000000000 3000000000 3000000000 3000000000 3000000000 0 0 0 0 0 0 0 0 0 0 0 0 ${kWall2} ${kWall} ${kWall2}
fix             p10 all property/global cohesionEnergyDensity peratomtypepair 15 0 0 0 0 0 0 0 0 0 0 0 0 0 3000000000 0 0 0 0 0 0 0 0 0 0 0 0 0 0 3000000000 0 0 0 0 0 0 0 0 0 0 0 0 0 0 3000000000 0 0 0 0 0 0 0 0 0 0 0 0 0 0 3000000000 0 0 0 0 0 0 0 0 0 0 0 0 0 0 3000000000 0 0 0 0 0 0 0 0 0 0 0 0 0 0 3000000000 0 0 0 0 0 0 0 0 0 0 0 0 0 0 3000000000 0 0 0 0 0 0 0 0 0 0 0 0 0 0 3000000000 0 0 0 0 0 0 0 0 0 0 0 0 0 0 3000000000 0 0 0 0 0 0 0 0 0 0 0 0 0 0 3000000000 0 0 0 0 0 0 0 0 0 0 0 0 0 0 3000000000 0 0 0 0 0 0 0 0 0 0 0 0 0 0 3000000000 0 0 0 0 0 0 0 0 0 0 0 0 0 0 3000000000 0 3000000000 3000000000 3000000000 3000000000 3000000000 3000000000 3000000000 3000000000 3000000000 3000000000 3000000000 3000000000 3000000000 3000000000 3000000000 0 0 0 0 0 0 0 0 0 0 0 0 0 ${kWall} ${kWall2}
fix             p10 all property/global cohesionEnergyDensity peratomtypepair 15 0 0 0 0 0 0 0 0 0 0 0 0 0 3000000000 0 0 0 0 0 0 0 0 0 0 0 0 0 0 3000000000 0 0 0 0 0 0 0 0 0 0 0 0 0 0 3000000000 0 0 0 0 0 0 0 0 0 0 0 0 0 0 3000000000 0 0 0 0 0 0 0 0 0 0 0 0 0 0 3000000000 0 0 0 0 0 0 0 0 0 0 0 0 0 0 3000000000 0 0 0 0 0 0 0 0 0 0 0 0 0 0 3000000000 0 0 0 0 0 0 0 0 0 0 0 0 0 0 3000000000 0 0 0 0 0 0 0 0 0 0 0 0 0 0 3000000000 0 0 0 0 0 0 0 0 0 0 0 0 0 0 3000000000 0 0 0 0 0 0 0 0 0 0 0 0 0 0 3000000000 0 0 0 0 0 0 0 0 0 0 0 0 0 0 3000000000 0 0 0 0 0 0 0 0 0 0 0 0 0 0 3000000000 0 3000000000 3000000000 3000000000 3000000000 3000000000 3000000000 3000000000 3000000000 3000000000 3000000000 3000000000 3000000000 3000000000 3000000000 3000000000 0 0 0 0 0 0 0 0 0 0 0 0 0 3000000000 ${kWall2}
fix             p10 all property/global cohesionEnergyDensity peratomtypepair 15 0 0 0 0 0 0 0 0 0 0 0 0 0 3000000000 0 0 0 0 0 0 0 0 0 0 0 0 0 0 3000000000 0 0 0 0 0 0 0 0 0 0 0 0 0 0 3000000000 0 0 0 0 0 0 0 0 0 0 0 0 0 0 3000000000 0 0 0 0 0 0 0 0 0 0 0 0 0 0 3000000000 0 0 0 0 0 0 0 0 0 0 0 0 0 0 3000000000 0 0 0 0 0 0 0 0 0 0 0 0 0 0 3000000000 0 0 0 0 0 0 0 0 0 0 0 0 0 0 3000000000 0 0 0 0 0 0 0 0 0 0 0 0 0 0 3000000000 0 0 0 0 0 0 0 0 0 0 0 0 0 0 3000000000 0 0 0 0 0 0 0 0 0 0 0 0 0 0 3000000000 0 0 0 0 0 0 0 0 0 0 0 0 0 0 3000000000 0 0 0 0 0 0 0 0 0 0 0 0 0 0 3000000000 0 3000000000 3000000000 3000000000 3000000000 3000000000 3000000000 3000000000 3000000000 3000000000 3000000000 3000000000 3000000000 3000000000 3000000000 3000000000 0 0 0 0 0 0 0 0 0 0 0 0 0 3000000000 0
pair_style      gran model hertz/stiffness/nano tangential nano cohesion bond rolling_friction nano full_length on write_file off per_molecule on
WARNING: 
	The contact model you specified is not located in any whitelist.
	Because of this the model will be run in an unoptimized version (increasing runtime by up to 20%).
	In order to optimize this model you have the following options:
		(i)  Run the genAutoExamplesWhitelist.sh script in your LIGGGHTS(R) source folder to automatically parse the input script
		(ii) Add the model combination by hand to your style_contact_model_user.whitelist that can be found in your LIGGGHTS(R) source folder
	If you perform one of the steps above LIGGGHTS(R) needs to be recompiled to generate the optimized code.

 (../contact_models.h:364)
pair_coeff      * *
# alternatively, you can consider the adhesion between particles
#include         include.potential_params


# NVE
fix             F_nve all nve/sphere

###############################################################################
### WALL
fix             cad1 all mesh/surface/stress file wall.stl type 15 scale 1 move 0.0 0.0 0.0
fix             cad2 all mesh/surface/stress file wall.stl type 15 scale 1 move 0.0 0.0 8.872e-08
fix             zwall all wall/gran model hertz tangential history rolling_friction epsd2 mesh n_meshes 2 meshes cad1 cad2
WARNING: 
	The contact model you specified is not located in any whitelist.
	Because of this the model will be run in an unoptimized version (increasing runtime by up to 20%).
	In order to optimize this model you have the following options:
		(i)  Run the genAutoExamplesWhitelist.sh script in your LIGGGHTS(R) source folder to automatically parse the input script
		(ii) Add the model combination by hand to your style_contact_model_user.whitelist that can be found in your LIGGGHTS(R) source folder
	If you perform one of the steps above LIGGGHTS(R) needs to be recompiled to generate the optimized code.

 (../contact_models.h:364)

################################################################################
### Create Post folder
shell           mkdir Post

################################################################################
### OUTPUT
# Thermo terminal output
thermo          ${interv}
thermo          5000

# Dumps
dump            trjdmp all custom ${interv} Post/*.liggghtsdump id mol type radius x y z ix iy iz vx vy vz fx fy fz omegax omegay omegaz
dump            trjdmp all custom 5000 Post/*.liggghtsdump id mol type radius x y z ix iy iz vx vy vz fx fy fz omegax omegay omegaz
dump            vtkdmp all mesh/stl ${interv} Post/wall_*.stl
dump            vtkdmp all mesh/stl 5000 Post/wall_*.stl

################################################################################
### RUN SIMULATION
timestep        5.000000e-13
# 1. equilibration period for the aggregate
run             1000
Setting up run at Mon Aug  4 03:24:19 2025

Memory usage per processor = 26.2221 Mbytes
    Step    Atoms         KinEng            CPU         Volume 
       0       31              0              0  3.0359759e-21 
    1000       31  4.4190632e-22       0.007679  3.0359759e-21 
Loop time of 0.007681 on 1 procs for 1000 steps with 31 atoms, finish time Mon Aug  4 03:24:19 2025


Pair  time (%) = 0.004091 (53.2613)
Bond  time (%) = 1.8e-05 (0.234344)
Neigh time (%) = 0 (0)
Comm  time (%) = 2.3e-05 (0.29944)
Outpt time (%) = 3e-06 (0.0390574)
Other time (%) = 0.003546 (46.1659)

Nlocal:    31 ave 31 max 31 min
Histogram: 1 0 0 0 0 0 0 0 0 0
Nghost:    0 ave 0 max 0 min
Histogram: 1 0 0 0 0 0 0 0 0 0
Neighs:    88 ave 88 max 88 min
Histogram: 1 0 0 0 0 0 0 0 0 0

Total # of neighbors = 88
Ave neighs/atom = 2.83871
Ave special neighs/atom = 0
Neighbor list builds = 0
Dangerous builds = 0
# 2. compaction with the wall
fix             movecad all move/mesh mesh cad2 linear 0.0 0.0 -5.000000e-01
run             180000
Setting up run at Mon Aug  4 03:24:19 2025

Memory usage per processor = 26.2227 Mbytes
    Step    Atoms         KinEng            CPU         Volume 
    1000       31  4.4190632e-22              0  3.0359759e-21 
    5000       31  1.2847221e-22       0.033187  3.0359759e-21 
   10000       31  7.9253917e-23        0.07384  2.9928794e-21 
   15000       31    5.50857e-23       0.114496  2.9497829e-21 
   20000       31  2.7920719e-23       0.155197  2.9066865e-21 
   25000       31  3.2392403e-23       0.195914  2.9066865e-21 
   30000       31  2.1819152e-23       0.236721    2.86359e-21 
   35000       31  4.6743689e-23       0.278095  2.8204936e-21 
   40000       31  1.9174347e-23        0.31873  2.7773971e-21 
   45000       31  3.4105476e-23       0.359407  2.7343006e-21 
   50000       31  2.4964005e-23       0.400375  2.6912042e-21 
   55000       31  1.6253919e-23       0.441447  2.6912042e-21 
   60000       31  3.5387162e-23       0.482488  2.6481077e-21 
   65000       31   2.042823e-23       0.523748  2.6050113e-21 
   70000       31  1.0000185e-20       0.565447  2.5619148e-21 
   75000       31   9.601317e-21       0.607711  2.5236794e-21 
   80000       31  8.3173929e-21       0.649684  2.4732303e-21 
   85000       31  5.9997334e-21       0.691797  2.4518544e-21 
   90000       31  4.3047709e-21       0.733677  2.4164625e-21 
   95000       31  1.5273509e-21       0.775741   2.373366e-21 
  100000       31  7.2095971e-21       0.819579  2.3334217e-21 
  105000       31  4.6799258e-21       0.863192  2.3125843e-21 
  110000       31    6.05559e-21       0.907384   2.286333e-21 
  115000       31    6.09185e-21        0.95169  2.2199291e-21 
  120000       31  6.7794534e-21       0.996359  2.1947979e-21 
  125000       31  9.7479355e-21       1.040601  2.1694297e-21 
  130000       31  1.1463227e-20       1.085014  2.1187005e-21 
  135000       31  8.0388807e-21       1.130689   2.093598e-21 
  140000       31  4.5198855e-20       1.176991  2.0402696e-21 
  145000       31  1.5041849e-20       1.223723  2.0049351e-21 
  150000       31  1.3332034e-20       1.271228  1.9707135e-21 
  155000       31  9.7004924e-21       1.319903  1.9313796e-21 
  160000       31  9.7163775e-21       1.369331  1.9313796e-21 
  165000       31  1.5726337e-20       1.419944   1.866024e-21 
  170000       31  1.6392129e-20       1.471322  1.8259361e-21 
  175000       31  1.7799006e-20       1.523949  1.8014942e-21 
  180000       31  1.0876478e-20       1.578457  1.7629501e-21 
  181000       31  1.4312259e-20       1.589751  1.7629501e-21 
Loop time of 1.58976 on 1 procs for 180000 steps with 31 atoms, finish time Mon Aug  4 03:24:20 2025


Pair  time (%) = 0.728247 (45.8088)
Bond  time (%) = 0.003822 (0.240414)
Neigh time (%) = 0.000395 (0.0248466)
Comm  time (%) = 0.003737 (0.235068)
Outpt time (%) = 0.011738 (0.738353)
Other time (%) = 0.841816 (52.9526)

Nlocal:    31 ave 31 max 31 min
Histogram: 1 0 0 0 0 0 0 0 0 0
Nghost:    0 ave 0 max 0 min
Histogram: 1 0 0 0 0 0 0 0 0 0
Neighs:    93 ave 93 max 93 min
Histogram: 1 0 0 0 0 0 0 0 0 0

Total # of neighbors = 93
Ave neighs/atom = 3
Ave special neighs/atom = 0
Neighbor list builds = 48
Dangerous builds = 0
# 3. Removal of the wall
unfix           movecad
undump          trjdmp
undump          vtkdmp
fix             F_visc all viscous 1e-11
dump            trjdmp all custom 50000 Post/*.liggghtsdump id mol type radius x y z ix iy iz vx vy vz fx fy fz omegax omegay omegaz
dump            vtkdmp all mesh/stl 50000 Post/wall_*.stl
fix             movecad all move/mesh mesh cad2 linear 0.0 0.0 5.000000e-01
run             300000
Setting up run at Mon Aug  4 03:24:20 2025

Memory usage per processor = 25.0631 Mbytes
    Step    Atoms         KinEng            CPU         Volume 
  181000       31  1.4312259e-20              0  1.7435129e-21 
  185000       31  1.4502514e-20        0.04423  1.7435129e-21 
  190000       31  9.6580014e-21       0.097751     1.8026e-21 
  195000       31  1.0709571e-20       0.150444  1.8385089e-21 
  200000       31  1.0742802e-20       0.201424  1.8709067e-21 
  205000       31  1.0967029e-20       0.251782  1.8957722e-21 
  210000       31  9.7705576e-21       0.301811   1.935695e-21 
  215000       31  1.0035559e-20       0.350589  1.9609483e-21 
  220000       31  1.0665454e-20       0.398834  1.9992482e-21 
  225000       31  8.6203181e-21       0.446543  2.0373615e-21 
  230000       31  5.3045643e-21       0.493193   2.091645e-21 
  235000       31  1.8439859e-21       0.538575   2.091645e-21 
  240000       31  8.0104566e-22       0.583746   2.132494e-21 
  245000       31  4.0046349e-22       0.628103  2.1755833e-21 
  250000       31  2.2057032e-22       0.672206  2.2186797e-21 
  255000       31  1.3505864e-22       0.716063  2.2617762e-21 
  260000       31  8.8305476e-23       0.759959  2.3048726e-21 
  265000       31  5.9850665e-23       0.803192  2.3048726e-21 
  270000       31  4.1447578e-23       0.846206  2.3479691e-21 
  275000       31   3.376231e-23       0.888545  2.3910656e-21 
  280000       31  3.2910057e-23       0.930702   2.434162e-21 
  285000       31  2.9489299e-23       0.972694  2.4772585e-21 
  290000       31   2.657955e-23       1.014552  2.5203549e-21 
  295000       31  2.6271272e-23       1.056288  2.5203549e-21 
  300000       31  2.6599808e-23       1.098667  2.5634514e-21 
  305000       31  2.4779808e-23       1.140659  2.6065479e-21 
  310000       31  2.6046418e-23       1.182396  2.6496443e-21 
  315000       31  2.3538098e-23        1.22409  2.6927408e-21 
  320000       31  2.6755528e-23       1.266303  2.7358372e-21 
  325000       31  2.1390849e-23       1.308146  2.7358372e-21 
  330000       31  2.2278773e-23       1.350167  2.7789337e-21 
  335000       31  2.5201843e-23       1.392128  2.8220302e-21 
  340000       31     2.2244e-23       1.434026  2.8651266e-21 
  345000       31  2.1023714e-23       1.475997  2.9082231e-21 
  350000       31  2.2261253e-23       1.518438  2.9513195e-21 
  355000       31  2.3050682e-23       1.560554  2.9513195e-21 
  360000       31  2.4125768e-23       1.602529   2.994416e-21 
  365000       31  2.2087604e-23       1.644774  3.0375124e-21 
  370000       31  1.9658419e-23       1.686894  3.0806089e-21 
  375000       31  2.2133468e-23       1.728885  3.1237054e-21 
  380000       31  2.2601371e-23       1.771003  3.1668018e-21 
  385000       31  2.1427029e-23        1.81295  3.1668018e-21 
  390000       31  2.0404978e-23       1.854788  3.2098983e-21 
  395000       31  2.4463189e-23       1.896678  3.2529947e-21 
  400000       31  2.1256246e-23       1.938605  3.2960912e-21 
  405000       31   2.086187e-23       1.980196  3.3391877e-21 
  410000       31  1.8276242e-23       2.021774  3.3822841e-21 
  415000       31  2.0037176e-23        2.06312  3.3822841e-21 
  420000       31  2.1923324e-23       2.105091  3.4253806e-21 
  425000       31  2.2150117e-23       2.146937  3.4684699e-21 
  430000       31  2.0446796e-23       2.188728  3.5115591e-21 
  435000       31   2.101067e-23       2.230361  3.5546484e-21 
  440000       31  2.0332574e-23        2.27216  3.5977377e-21 
  445000       31  2.0069929e-23       2.313846  3.5977377e-21 
  450000       31  1.7727373e-23       2.355725   3.640827e-21 
  455000       31  1.9009041e-23        2.39724  3.6839162e-21 
  460000       31  1.9723348e-23       2.438916  3.7270055e-21 
  465000       31  1.8949127e-23       2.480479  3.7700948e-21 
  470000       31  2.0731764e-23        2.52226  3.8131841e-21 
  475000       31  2.1214357e-23       2.564127  3.8131841e-21 
  480000       31  2.0780993e-23       2.605738  3.8562734e-21 
  481000       31  1.7983898e-23       2.614081  3.8562734e-21 
Loop time of 2.61408 on 1 procs for 300000 steps with 31 atoms, finish time Mon Aug  4 03:24:23 2025


Pair  time (%) = 1.19883 (45.8602)
Bond  time (%) = 0.006517 (0.249303)
Neigh time (%) = 0.000474 (0.0181325)
Comm  time (%) = 0.006318 (0.241691)
Outpt time (%) = 0.002714 (0.103822)
Other time (%) = 1.39924 (53.5268)

Nlocal:    31 ave 31 max 31 min
Histogram: 1 0 0 0 0 0 0 0 0 0
Nghost:    0 ave 0 max 0 min
Histogram: 1 0 0 0 0 0 0 0 0 0
Neighs:    85 ave 85 max 85 min
Histogram: 1 0 0 0 0 0 0 0 0 0

Total # of neighbors = 85
Ave neighs/atom = 2.74194
Ave special neighs/atom = 0
Neighbor list builds = 53
Dangerous builds = 0

